<?xml version="1.0" encoding="ISO-8859-1"?>
<modeling>
 <generator>
  <i name="program" type="string">vasp </i>
  <i name="version" type="string">5.4.4.18Apr17-6-g9f103f2a35  </i>
  <i name="subversion" type="string">(build Jun 30 2017 11:24:31) complex            parallel </i>
  <i name="platform" type="string">LinuxGNU </i>
  <i name="date" type="string">2017 07 05 </i>
  <i name="time" type="string">10:46:09 </i>
 </generator>
 <incar>
  <i type="string" name="PREC">high</i>
  <i type="logical" name="ADDGRID"> T  </i>
  <i type="int" name="IBRION">     2</i>
  <i type="int" name="NSW">     0</i>
  <i type="logical" name="LREAL"> F  </i>
  <i type="int" name="ISMEAR">     0</i>
  <i name="SIGMA">      0.01000000</i>
  <i type="logical" name="LWAVE"> F  </i>
  <i type="logical" name="LCHARG"> T  </i>
  <i type="logical" name="LOPTICS"> T  </i>
  <v type="int" name="KPOINT_BSE">    -1     0     0     0</v>
  <i type="logical" name="LVEL"> T  </i>
 </incar>
 <structure name="primitive_cell" >
  <crystal>
   <varray name="basis" >
    <v>       0.00000000       2.73355606       2.73355606 </v>
    <v>       2.73355606       0.00000000       2.73355606 </v>
    <v>       2.73355606       2.73355606       0.00000000 </v>
   </varray>
   <i name="volume">     40.85205889 </i>
   <varray name="rec_basis" >
    <v>      -0.18291192       0.18291192       0.18291192 </v>
    <v>       0.18291192      -0.18291192       0.18291192 </v>
    <v>       0.18291192       0.18291192      -0.18291192 </v>
   </varray>
  </crystal>
  <varray name="positions" >
   <v>       0.00000000       0.00000000       0.00000000 </v>
   <v>       0.25000000       0.25000000       0.25000000 </v>
  </varray>
 </structure>
 <varray name="primitive_index" >
  <v type="int" >        1 </v>
  <v type="int" >        2 </v>
 </varray>
 <kpoints>
  <generation param="Gamma">
   <v type="int" name="divisions">      17       17       17 </v>
   <v name="usershift">      0.00000000       0.00000000       0.00000000 </v>
   <v name="genvec1">      0.05882353       0.00000000       0.00000000 </v>
   <v name="genvec2">      0.00000000       0.05882353       0.00000000 </v>
   <v name="genvec3">      0.00000000       0.00000000       0.05882353 </v>
   <v name="shift">      0.00000000       0.00000000       0.00000000 </v>
  </generation>
  <varray name="kpointlist" >
   <v>       0.00000000       0.00000000       0.00000000 </v>
   <v>       0.05882353       0.00000000       0.00000000 </v>
   <v>       0.11764706       0.00000000       0.00000000 </v>
   <v>       0.17647059       0.00000000       0.00000000 </v>
   <v>       0.23529412       0.00000000       0.00000000 </v>
   <v>       0.29411765       0.00000000       0.00000000 </v>
   <v>       0.35294118       0.00000000       0.00000000 </v>
   <v>       0.41176471       0.00000000       0.00000000 </v>
   <v>       0.47058824       0.00000000       0.00000000 </v>
   <v>       0.05882353       0.05882353       0.00000000 </v>
   <v>       0.11764706       0.05882353       0.00000000 </v>
   <v>       0.17647059       0.05882353       0.00000000 </v>
   <v>       0.23529412       0.05882353       0.00000000 </v>
   <v>       0.29411765       0.05882353       0.00000000 </v>
   <v>       0.35294118       0.05882353       0.00000000 </v>
   <v>       0.41176471       0.05882353       0.00000000 </v>
   <v>       0.47058824       0.05882353       0.00000000 </v>
   <v>      -0.47058824       0.05882353       0.00000000 </v>
   <v>      -0.41176471       0.05882353       0.00000000 </v>
   <v>      -0.35294118       0.05882353       0.00000000 </v>
   <v>      -0.29411765       0.05882353       0.00000000 </v>
   <v>      -0.23529412       0.05882353       0.00000000 </v>
   <v>      -0.17647059       0.05882353       0.00000000 </v>
   <v>      -0.11764706       0.05882353       0.00000000 </v>
   <v>      -0.05882353       0.05882353       0.00000000 </v>
   <v>       0.11764706       0.11764706       0.00000000 </v>
   <v>       0.17647059       0.11764706       0.00000000 </v>
   <v>       0.23529412       0.11764706       0.00000000 </v>
   <v>       0.29411765       0.11764706       0.00000000 </v>
   <v>       0.35294118       0.11764706       0.00000000 </v>
   <v>       0.41176471       0.11764706       0.00000000 </v>
   <v>       0.47058824       0.11764706       0.00000000 </v>
   <v>      -0.47058824       0.11764706       0.00000000 </v>
   <v>      -0.41176471       0.11764706       0.00000000 </v>
   <v>      -0.35294118       0.11764706       0.00000000 </v>
   <v>      -0.29411765       0.11764706       0.00000000 </v>
   <v>      -0.23529412       0.11764706       0.00000000 </v>
   <v>      -0.17647059       0.11764706       0.00000000 </v>
   <v>      -0.11764706       0.11764706       0.00000000 </v>
   <v>       0.17647059       0.17647059       0.00000000 </v>
   <v>       0.23529412       0.17647059       0.00000000 </v>
   <v>       0.29411765       0.17647059       0.00000000 </v>
   <v>       0.35294118       0.17647059       0.00000000 </v>
   <v>       0.41176471       0.17647059       0.00000000 </v>
   <v>       0.47058824       0.17647059       0.00000000 </v>
   <v>      -0.47058824       0.17647059       0.00000000 </v>
   <v>      -0.41176471       0.17647059       0.00000000 </v>
   <v>      -0.35294118       0.17647059       0.00000000 </v>
   <v>      -0.29411765       0.17647059       0.00000000 </v>
   <v>      -0.23529412       0.17647059       0.00000000 </v>
   <v>      -0.17647059       0.17647059       0.00000000 </v>
   <v>       0.23529412       0.23529412       0.00000000 </v>
   <v>       0.29411765       0.23529412       0.00000000 </v>
   <v>       0.35294118       0.23529412       0.00000000 </v>
   <v>       0.41176471       0.23529412       0.00000000 </v>
   <v>       0.47058824       0.23529412       0.00000000 </v>
   <v>      -0.47058824       0.23529412       0.00000000 </v>
   <v>      -0.41176471       0.23529412       0.00000000 </v>
   <v>      -0.35294118       0.23529412       0.00000000 </v>
   <v>      -0.29411765       0.23529412       0.00000000 </v>
   <v>      -0.23529412       0.23529412       0.00000000 </v>
   <v>       0.29411765       0.29411765       0.00000000 </v>
   <v>       0.35294118       0.29411765       0.00000000 </v>
   <v>       0.41176471       0.29411765       0.00000000 </v>
   <v>       0.47058824       0.29411765       0.00000000 </v>
   <v>      -0.47058824       0.29411765       0.00000000 </v>
   <v>      -0.41176471       0.29411765       0.00000000 </v>
   <v>      -0.35294118       0.29411765       0.00000000 </v>
   <v>      -0.29411765       0.29411765       0.00000000 </v>
   <v>       0.35294118       0.35294118       0.00000000 </v>
   <v>       0.41176471       0.35294118       0.00000000 </v>
   <v>       0.47058824       0.35294118       0.00000000 </v>
   <v>      -0.47058824       0.35294118       0.00000000 </v>
   <v>      -0.41176471       0.35294118       0.00000000 </v>
   <v>      -0.35294118       0.35294118       0.00000000 </v>
   <v>       0.41176471       0.41176471       0.00000000 </v>
   <v>       0.47058824       0.41176471       0.00000000 </v>
   <v>      -0.47058824       0.41176471       0.00000000 </v>
   <v>      -0.41176471       0.41176471       0.00000000 </v>
   <v>       0.47058824       0.47058824       0.00000000 </v>
   <v>      -0.47058824       0.47058824       0.00000000 </v>
   <v>       0.17647059       0.11764706       0.05882353 </v>
   <v>       0.23529412       0.11764706       0.05882353 </v>
   <v>       0.29411765       0.11764706       0.05882353 </v>
   <v>       0.35294118       0.11764706       0.05882353 </v>
   <v>       0.41176471       0.11764706       0.05882353 </v>
   <v>       0.47058824       0.11764706       0.05882353 </v>
   <v>      -0.47058824       0.11764706       0.05882353 </v>
   <v>       0.23529412       0.17647059       0.05882353 </v>
   <v>       0.29411765       0.17647059       0.05882353 </v>
   <v>       0.35294118       0.17647059       0.05882353 </v>
   <v>       0.41176471       0.17647059       0.05882353 </v>
   <v>       0.47058824       0.17647059       0.05882353 </v>
   <v>      -0.47058824       0.17647059       0.05882353 </v>
   <v>      -0.41176471       0.17647059       0.05882353 </v>
   <v>      -0.35294118       0.17647059       0.05882353 </v>
   <v>      -0.29411765       0.17647059       0.05882353 </v>
   <v>      -0.23529412       0.17647059       0.05882353 </v>
   <v>      -0.17647059       0.17647059       0.05882353 </v>
   <v>      -0.11764706       0.17647059       0.05882353 </v>
   <v>       0.29411765       0.23529412       0.05882353 </v>
   <v>       0.35294118       0.23529412       0.05882353 </v>
   <v>       0.41176471       0.23529412       0.05882353 </v>
   <v>       0.47058824       0.23529412       0.05882353 </v>
   <v>      -0.47058824       0.23529412       0.05882353 </v>
   <v>      -0.41176471       0.23529412       0.05882353 </v>
   <v>      -0.35294118       0.23529412       0.05882353 </v>
   <v>      -0.29411765       0.23529412       0.05882353 </v>
   <v>      -0.23529412       0.23529412       0.05882353 </v>
   <v>      -0.17647059       0.23529412       0.05882353 </v>
   <v>       0.35294118       0.29411765       0.05882353 </v>
   <v>       0.41176471       0.29411765       0.05882353 </v>
   <v>       0.47058824       0.29411765       0.05882353 </v>
   <v>      -0.47058824       0.29411765       0.05882353 </v>
   <v>      -0.41176471       0.29411765       0.05882353 </v>
   <v>      -0.35294118       0.29411765       0.05882353 </v>
   <v>      -0.29411765       0.29411765       0.05882353 </v>
   <v>      -0.23529412       0.29411765       0.05882353 </v>
   <v>       0.41176471       0.35294118       0.05882353 </v>
   <v>       0.47058824       0.35294118       0.05882353 </v>
   <v>      -0.47058824       0.35294118       0.05882353 </v>
   <v>      -0.41176471       0.35294118       0.05882353 </v>
   <v>      -0.35294118       0.35294118       0.05882353 </v>
   <v>      -0.29411765       0.35294118       0.05882353 </v>
   <v>       0.47058824       0.41176471       0.05882353 </v>
   <v>      -0.47058824       0.41176471       0.05882353 </v>
   <v>      -0.41176471       0.41176471       0.05882353 </v>
   <v>      -0.35294118       0.41176471       0.05882353 </v>
   <v>      -0.47058824       0.47058824       0.05882353 </v>
   <v>      -0.41176471       0.47058824       0.05882353 </v>
   <v>       0.35294118       0.23529412       0.11764706 </v>
   <v>       0.41176471       0.23529412       0.11764706 </v>
   <v>       0.47058824       0.23529412       0.11764706 </v>
   <v>      -0.47058824       0.23529412       0.11764706 </v>
   <v>      -0.41176471       0.23529412       0.11764706 </v>
   <v>       0.41176471       0.29411765       0.11764706 </v>
   <v>       0.47058824       0.29411765       0.11764706 </v>
   <v>      -0.47058824       0.29411765       0.11764706 </v>
   <v>      -0.41176471       0.29411765       0.11764706 </v>
   <v>      -0.35294118       0.29411765       0.11764706 </v>
   <v>      -0.29411765       0.29411765       0.11764706 </v>
   <v>      -0.23529412       0.29411765       0.11764706 </v>
   <v>      -0.17647059       0.29411765       0.11764706 </v>
   <v>       0.47058824       0.35294118       0.11764706 </v>
   <v>      -0.47058824       0.35294118       0.11764706 </v>
   <v>      -0.41176471       0.35294118       0.11764706 </v>
   <v>      -0.35294118       0.35294118       0.11764706 </v>
   <v>      -0.29411765       0.35294118       0.11764706 </v>
   <v>      -0.23529412       0.35294118       0.11764706 </v>
   <v>      -0.47058824       0.41176471       0.11764706 </v>
   <v>      -0.41176471       0.41176471       0.11764706 </v>
   <v>      -0.35294118       0.41176471       0.11764706 </v>
   <v>      -0.29411765       0.41176471       0.11764706 </v>
   <v>      -0.41176471       0.47058824       0.11764706 </v>
   <v>      -0.35294118       0.47058824       0.11764706 </v>
   <v>      -0.47058824       0.35294118       0.17647059 </v>
   <v>      -0.41176471       0.35294118       0.17647059 </v>
   <v>      -0.35294118       0.35294118       0.17647059 </v>
   <v>      -0.41176471       0.41176471       0.17647059 </v>
   <v>      -0.35294118       0.41176471       0.17647059 </v>
   <v>      -0.29411765       0.41176471       0.17647059 </v>
   <v>      -0.23529412       0.41176471       0.17647059 </v>
   <v>      -0.35294118       0.47058824       0.17647059 </v>
   <v>      -0.29411765       0.47058824       0.17647059 </v>
   <v>      -0.29411765       0.47058824       0.23529412 </v>
  </varray>
  <varray name="weights" >
   <v>       0.00020354 </v>
   <v>       0.00162833 </v>
   <v>       0.00162833 </v>
   <v>       0.00162833 </v>
   <v>       0.00162833 </v>
   <v>       0.00162833 </v>
   <v>       0.00162833 </v>
   <v>       0.00162833 </v>
   <v>       0.00162833 </v>
   <v>       0.00122125 </v>
   <v>       0.00488500 </v>
   <v>       0.00488500 </v>
   <v>       0.00488500 </v>
   <v>       0.00488500 </v>
   <v>       0.00488500 </v>
   <v>       0.00488500 </v>
   <v>       0.00488500 </v>
   <v>       0.00488500 </v>
   <v>       0.00488500 </v>
   <v>       0.00488500 </v>
   <v>       0.00488500 </v>
   <v>       0.00488500 </v>
   <v>       0.00488500 </v>
   <v>       0.00488500 </v>
   <v>       0.00244250 </v>
   <v>       0.00122125 </v>
   <v>       0.00488500 </v>
   <v>       0.00488500 </v>
   <v>       0.00488500 </v>
   <v>       0.00488500 </v>
   <v>       0.00488500 </v>
   <v>       0.00488500 </v>
   <v>       0.00488500 </v>
   <v>       0.00488500 </v>
   <v>       0.00488500 </v>
   <v>       0.00488500 </v>
   <v>       0.00488500 </v>
   <v>       0.00488500 </v>
   <v>       0.00244250 </v>
   <v>       0.00122125 </v>
   <v>       0.00488500 </v>
   <v>       0.00488500 </v>
   <v>       0.00488500 </v>
   <v>       0.00488500 </v>
   <v>       0.00488500 </v>
   <v>       0.00488500 </v>
   <v>       0.00488500 </v>
   <v>       0.00488500 </v>
   <v>       0.00488500 </v>
   <v>       0.00488500 </v>
   <v>       0.00244250 </v>
   <v>       0.00122125 </v>
   <v>       0.00488500 </v>
   <v>       0.00488500 </v>
   <v>       0.00488500 </v>
   <v>       0.00488500 </v>
   <v>       0.00488500 </v>
   <v>       0.00488500 </v>
   <v>       0.00488500 </v>
   <v>       0.00488500 </v>
   <v>       0.00244250 </v>
   <v>       0.00122125 </v>
   <v>       0.00488500 </v>
   <v>       0.00488500 </v>
   <v>       0.00488500 </v>
   <v>       0.00488500 </v>
   <v>       0.00488500 </v>
   <v>       0.00488500 </v>
   <v>       0.00244250 </v>
   <v>       0.00122125 </v>
   <v>       0.00488500 </v>
   <v>       0.00488500 </v>
   <v>       0.00488500 </v>
   <v>       0.00488500 </v>
   <v>       0.00244250 </v>
   <v>       0.00122125 </v>
   <v>       0.00488500 </v>
   <v>       0.00488500 </v>
   <v>       0.00244250 </v>
   <v>       0.00122125 </v>
   <v>       0.00244250 </v>
   <v>       0.00488500 </v>
   <v>       0.00977000 </v>
   <v>       0.00977000 </v>
   <v>       0.00977000 </v>
   <v>       0.00977000 </v>
   <v>       0.00977000 </v>
   <v>       0.00977000 </v>
   <v>       0.00488500 </v>
   <v>       0.00977000 </v>
   <v>       0.00977000 </v>
   <v>       0.00977000 </v>
   <v>       0.00977000 </v>
   <v>       0.00977000 </v>
   <v>       0.00977000 </v>
   <v>       0.00977000 </v>
   <v>       0.00977000 </v>
   <v>       0.00977000 </v>
   <v>       0.00977000 </v>
   <v>       0.00488500 </v>
   <v>       0.00488500 </v>
   <v>       0.00977000 </v>
   <v>       0.00977000 </v>
   <v>       0.00977000 </v>
   <v>       0.00977000 </v>
   <v>       0.00977000 </v>
   <v>       0.00977000 </v>
   <v>       0.00977000 </v>
   <v>       0.00977000 </v>
   <v>       0.00488500 </v>
   <v>       0.00488500 </v>
   <v>       0.00977000 </v>
   <v>       0.00977000 </v>
   <v>       0.00977000 </v>
   <v>       0.00977000 </v>
   <v>       0.00977000 </v>
   <v>       0.00977000 </v>
   <v>       0.00488500 </v>
   <v>       0.00488500 </v>
   <v>       0.00977000 </v>
   <v>       0.00977000 </v>
   <v>       0.00977000 </v>
   <v>       0.00977000 </v>
   <v>       0.00488500 </v>
   <v>       0.00488500 </v>
   <v>       0.00977000 </v>
   <v>       0.00977000 </v>
   <v>       0.00488500 </v>
   <v>       0.00488500 </v>
   <v>       0.00488500 </v>
   <v>       0.00488500 </v>
   <v>       0.00977000 </v>
   <v>       0.00977000 </v>
   <v>       0.00977000 </v>
   <v>       0.00977000 </v>
   <v>       0.00488500 </v>
   <v>       0.00977000 </v>
   <v>       0.00977000 </v>
   <v>       0.00977000 </v>
   <v>       0.00977000 </v>
   <v>       0.00977000 </v>
   <v>       0.00977000 </v>
   <v>       0.00488500 </v>
   <v>       0.00488500 </v>
   <v>       0.00977000 </v>
   <v>       0.00977000 </v>
   <v>       0.00977000 </v>
   <v>       0.00977000 </v>
   <v>       0.00488500 </v>
   <v>       0.00488500 </v>
   <v>       0.00977000 </v>
   <v>       0.00977000 </v>
   <v>       0.00488500 </v>
   <v>       0.00488500 </v>
   <v>       0.00488500 </v>
   <v>       0.00488500 </v>
   <v>       0.00977000 </v>
   <v>       0.00977000 </v>
   <v>       0.00488500 </v>
   <v>       0.00977000 </v>
   <v>       0.00977000 </v>
   <v>       0.00488500 </v>
   <v>       0.00488500 </v>
   <v>       0.00488500 </v>
   <v>       0.00488500 </v>
  </varray>
 </kpoints>
 <parameters>
  <separator name="general" >
   <i type="string" name="SYSTEM">unknown system</i>
   <i type="logical" name="LCOMPAT"> F  </i>
  </separator>
  <separator name="electronic" >
   <i type="string" name="PREC">high</i>
   <i name="ENMAX">    306.68125000</i>
   <i name="ENAUG">    322.06900000</i>
   <i name="EDIFF">      0.00010000</i>
   <i type="int" name="IALGO">    38</i>
   <i type="int" name="IWAVPR">    10</i>
   <i type="int" name="NBANDS">     8</i>
   <i name="NELECT">      8.00000000</i>
   <i type="int" name="TURBO">     0</i>
   <i type="int" name="IRESTART">     0</i>
   <i type="int" name="NREBOOT">     0</i>
   <i type="int" name="NMIN">     0</i>
   <i name="EREF">      0.00000000</i>
   <separator name="electronic smearing" >
    <i type="int" name="ISMEAR">     0</i>
    <i name="SIGMA">      0.01000000</i>
    <i name="KSPACING">      0.50000000</i>
    <i type="logical" name="KGAMMA"> T  </i>
   </separator>
   <separator name="electronic projectors" >
    <i type="logical" name="LREAL"> F  </i>
    <v name="ROPT">      0.00000000</v>
    <i type="int" name="LMAXPAW">  -100</i>
    <i type="int" name="LMAXMIX">     2</i>
    <i type="logical" name="NLSPLINE"> F  </i>
   </separator>
   <separator name="electronic startup" >
    <i type="int" name="ISTART">     0</i>
    <i type="int" name="ICHARG">     2</i>
    <i type="int" name="INIWAV">     1</i>
   </separator>
   <separator name="electronic spin" >
    <i type="int" name="ISPIN">     1</i>
    <i type="logical" name="LNONCOLLINEAR"> F  </i>
    <v name="MAGMOM">      1.00000000      1.00000000</v>
    <i name="NUPDOWN">     -1.00000000</i>
    <i type="logical" name="LSORBIT"> F  </i>
    <v name="SAXIS">      0.00000000      0.00000000      1.00000000</v>
    <i type="logical" name="LSPIRAL"> F  </i>
    <v name="QSPIRAL">      0.00000000      0.00000000      0.00000000</v>
    <i type="logical" name="LZEROZ"> F  </i>
   </separator>
   <separator name="electronic exchange-correlation" >
    <i type="logical" name="LASPH"> F  </i>
    <i type="logical" name="LMETAGGA"> F  </i>
   </separator>
   <separator name="electronic convergence" >
    <i type="int" name="NELM">    60</i>
    <i type="int" name="NELMDL">    -5</i>
    <i type="int" name="NELMIN">     2</i>
    <i name="ENINI">    306.68125000</i>
    <separator name="electronic convergence detail" >
     <i type="logical" name="LDIAG"> T  </i>
     <i type="logical" name="LSUBROT"> F  </i>
     <i name="WEIMIN">      0.00000000</i>
     <i name="EBREAK">      0.00000313</i>
     <i name="DEPER">      0.30000000</i>
     <i type="int" name="NRMM">     4</i>
     <i name="TIME">      0.40000000</i>
    </separator>
   </separator>
   <separator name="electronic mixer" >
    <i name="AMIX">      0.40000000</i>
    <i name="BMIX">      1.00000000</i>
    <i name="AMIN">      0.10000000</i>
    <i name="AMIX_MAG">      1.60000000</i>
    <i name="BMIX_MAG">      1.00000000</i>
    <separator name="electronic mixer details" >
     <i type="int" name="IMIX">     4</i>
     <i type="logical" name="MIXFIRST"> F  </i>
     <i type="int" name="MAXMIX">   -45</i>
     <i name="WC">    100.00000000</i>
     <i type="int" name="INIMIX">     1</i>
     <i type="int" name="MIXPRE">     1</i>
     <i type="int" name="MREMOVE">     5</i>
    </separator>
   </separator>
   <separator name="electronic dipolcorrection" >
    <i type="logical" name="LDIPOL"> F  </i>
    <i type="logical" name="LMONO"> F  </i>
    <i type="int" name="IDIPOL">     0</i>
    <i name="EPSILON">      1.00000000</i>
    <v name="DIPOL">   -100.00000000   -100.00000000   -100.00000000</v>
    <i name="EFIELD">      0.00000000</i>
   </separator>
  </separator>
  <separator name="grids" >
   <i type="int" name="NGX">    24</i>
   <i type="int" name="NGY">    24</i>
   <i type="int" name="NGZ">    24</i>
   <i type="int" name="NGXF">    30</i>
   <i type="int" name="NGYF">    30</i>
   <i type="int" name="NGZF">    30</i>
   <i type="logical" name="ADDGRID"> T  </i>
  </separator>
  <separator name="ionic" >
   <i type="int" name="NSW">     0</i>
   <i type="int" name="IBRION">    -1</i>
   <i type="int" name="MDALGO">     0</i>
   <i type="int" name="ISIF">     2</i>
   <i name="PSTRESS">      0.00000000</i>
   <i name="EDIFFG">      0.00100000</i>
   <i type="int" name="NFREE">     1</i>
   <i name="POTIM">      0.50000000</i>
   <i name="SMASS">     -3.00000000</i>
   <i name="SCALEE">      1.00000000</i>
  </separator>
  <separator name="ionic md" >
   <i name="TEBEG">      0.00010000</i>
   <i name="TEEND">      0.00010000</i>
   <i type="int" name="NBLOCK">     1</i>
   <i type="int" name="KBLOCK">     1</i>
   <i type="int" name="NPACO">   256</i>
   <i name="APACO">     16.00000000</i>
  </separator>
  <separator name="symmetry" >
   <i type="int" name="ISYM">     2</i>
   <i name="SYMPREC">      0.00001000</i>
  </separator>
  <separator name="dos" >
   <i type="int" name="LORBIT">     0</i>
   <v name="RWIGS">     -1.00000000</v>
   <i type="int" name="NEDOS">   301</i>
   <i name="EMIN">     10.00000000</i>
   <i name="EMAX">    -10.00000000</i>
   <i name="EFERMI">      0.00000000</i>
  </separator>
  <separator name="writing" >
   <i type="int" name="NWRITE">     2</i>
   <i type="logical" name="LWAVE"> F  </i>
   <i type="logical" name="LDOWNSAMPLE"> F  </i>
   <i type="logical" name="LCHARG"> T  </i>
   <i type="logical" name="LPARD"> F  </i>
   <i type="logical" name="LVTOT"> F  </i>
   <i type="logical" name="LVHAR"> F  </i>
   <i type="logical" name="LELF"> F  </i>
   <i type="logical" name="LOPTICS"> T  </i>
   <v name="STM">      0.00000000      0.00000000      0.00000000      0.00000000      0.00000000      0.00000000      0.00000000</v>
  </separator>
  <separator name="performance" >
   <i type="int" name="NPAR">     2</i>
   <i type="int" name="NSIM">     4</i>
   <i type="int" name="NBLK">    -1</i>
   <i type="logical" name="LPLANE"> T  </i>
   <i type="logical" name="LSCALAPACK"> T  </i>
   <i type="logical" name="LSCAAWARE"> F  </i>
   <i type="logical" name="LSCALU"> F  </i>
   <i type="logical" name="LASYNC"> F  </i>
   <i type="logical" name="LORBITALREAL"> F  </i>
  </separator>
  <separator name="miscellaneous" >
   <i type="int" name="IDIOT">     3</i>
   <i type="int" name="ISPECIAL">     0</i>
   <i type="logical" name="LMUSIC"> F  </i>
   <v name="POMASS">     28.08500000</v>
   <v name="DARWINR">      0.00000000</v>
   <v name="DARWINV">      1.00000000</v>
   <i type="logical" name="LCORR"> T  </i>
  </separator>
  <i type="logical" name="GGA_COMPAT"> T  </i>
  <i type="logical" name="LBERRY"> F  </i>
  <i type="int" name="ICORELEVEL">     0</i>
  <i type="logical" name="LDAU"> F  </i>
  <i type="int" name="I_CONSTRAINED_M">     0</i>
  <separator name="electronic exchange-correlation" >
   <i type="string" name="GGA">--</i>
   <i type="int" name="VOSKOWN">     0</i>
   <i type="logical" name="LHFCALC"> F  </i>
   <i type="string" name="PRECFOCK"></i>
   <i type="logical" name="LSYMGRAD"> F  </i>
   <i type="logical" name="LHFONE"> F  </i>
   <i type="logical" name="LRHFCALC"> F  </i>
   <i type="logical" name="LTHOMAS"> F  </i>
   <i type="logical" name="LMODELHF"> F  </i>
   <i name="ENCUT4O">     -1.00000000</i>
   <i type="int" name="EXXOEP">     0</i>
   <i type="int" name="FOURORBIT">     0</i>
   <i name="AEXX">      0.00000000</i>
   <i name="HFALPHA">      0.00000000</i>
   <i name="MCALPHA">      0.00000000</i>
   <i name="ALDAX">      1.00000000</i>
   <i name="AGGAX">      1.00000000</i>
   <i name="ALDAC">      1.00000000</i>
   <i name="AGGAC">      1.00000000</i>
   <i type="int" name="NKREDX">     1</i>
   <i type="int" name="NKREDY">     1</i>
   <i type="int" name="NKREDZ">     1</i>
   <i type="logical" name="SHIFTRED"> F  </i>
   <i type="logical" name="ODDONLY"> F  </i>
   <i type="logical" name="EVENONLY"> F  </i>
   <i type="int" name="LMAXFOCK">     0</i>
   <i type="int" name="NMAXFOCKAE">     0</i>
   <i type="logical" name="LFOCKAEDFT"> F  </i>
   <i name="HFSCREEN">      0.00000000</i>
   <i name="HFSCREENC">      0.00000000</i>
   <i type="int" name="NBANDSGWLOW">     0</i>
  </separator>
  <separator name="vdW DFT" >
   <i type="logical" name="LUSE_VDW"> F  </i>
   <i name="Zab_VDW">     -0.84910000</i>
   <i name="PARAM1">      0.12340000</i>
   <i name="PARAM2">      1.00000000</i>
   <i name="PARAM3">      0.00000000</i>
  </separator>
  <separator name="model GW" >
   <i type="int" name="MODEL_GW">     0</i>
   <i name="MODEL_EPS0">     12.25561767</i>
   <i name="MODEL_ALPHA">      1.00000000</i>
  </separator>
  <separator name="linear response parameters" >
   <i type="logical" name="LEPSILON"> F  </i>
   <i type="logical" name="LRPA"> F  </i>
   <i type="logical" name="LNABLA"> F  </i>
   <i type="logical" name="LVEL"> T  </i>
   <i type="int" name="KINTER">     0</i>
   <i name="CSHIFT">      0.10000000</i>
   <i name="OMEGAMAX">     -1.00000000</i>
   <i name="DEG_THRESHOLD">      0.00200000</i>
   <i name="RTIME">     -0.10000000</i>
   <i name="WPLASMAI">      0.00000000</i>
   <v name="DFIELD">      0.00000000      0.00000000      0.00000000</v>
   <v name="WPLASMA">      0.00000000      0.00000000      0.00000000      0.00000000      0.00000000      0.00000000      0.00000000      0.00000000      0.00000000</v>
  </separator>
  <separator name="orbital magnetization" >
   <i type="logical" name="NUCIND"> F  </i>
   <v name="MAGPOS">      0.00000000      0.00000000      0.00000000</v>
   <i type="logical" name="LNICSALL"> T  </i>
   <i type="logical" name="ORBITALMAG"> F  </i>
   <i type="logical" name="LMAGBLOCH"> F  </i>
   <i type="logical" name="LCHIMAG"> F  </i>
   <i type="logical" name="LGAUGE"> T  </i>
   <i type="int" name="MAGATOM">     0</i>
   <v name="MAGDIPOL">      0.00000000      0.00000000      0.00000000</v>
   <v name="AVECCONST">      0.00000000      0.00000000      0.00000000</v>
  </separator>
  <separator name="response functions" >
   <i type="logical" name="LADDER"> F  </i>
   <i type="logical" name="LRPAFORCE"> F  </i>
   <i type="logical" name="LFXC"> F  </i>
   <i type="logical" name="LHARTREE"> T  </i>
   <i type="int" name="IBSE">     0</i>
   <v type="int" name="KPOINT">    -1     0     0     0</v>
   <i type="logical" name="LTCTE"> F  </i>
   <i type="logical" name="LTETE"> F  </i>
   <i type="logical" name="LTRIPLET"> F  </i>
   <i type="logical" name="LFXCEPS"> F  </i>
   <i type="logical" name="LFXHEG"> F  </i>
   <i type="int" name="NATURALO">     2</i>
   <i type="logical" name="L2ORDER"> F  </i>
   <i type="logical" name="LMP2LT"> F  </i>
   <i type="logical" name="LUSEW"> F  </i>
   <i name="ENCUTGW">     -2.00000000</i>
   <i name="ENCUTGWSOFT">     -2.00000000</i>
   <i name="ENCUTLF">     -1.00000000</i>
   <i type="int" name="LMAXMP2">    -1</i>
   <i name="SCISSOR">      0.00000000</i>
   <i type="int" name="NOMEGA">     0</i>
   <i type="int" name="NOMEGAR">     0</i>
   <i type="int" name="NBANDSGW">    -1</i>
   <i type="int" name="NBANDSO">    -1</i>
   <i type="int" name="NBANDSV">    -1</i>
   <i type="int" name="NELM">     1</i>
   <i type="int" name="NELMHF">     1</i>
   <i type="int" name="DIM">     3</i>
   <i type="int" name="ANTIRES">     0</i>
   <i name="OMEGAMAX">    -30.00000000</i>
   <i name="OMEGAMIN">    -30.00000000</i>
   <i name="OMEGATL">   -200.00000000</i>
   <i type="int" name="OMEGAGRID">   140</i>
   <i name="CSHIFT">     -0.10000000</i>
   <i type="logical" name="SELFENERGY"> F  </i>
   <i type="logical" name="LSPECTRAL"> F  </i>
   <i type="logical" name="LSPECTRALGW"> F  </i>
   <i type="logical" name="LSINGLES"> F  </i>
   <i type="logical" name="LFERMIGW"> F  </i>
   <i type="logical" name="ODDONLYGW"> F  </i>
   <i type="logical" name="EVENONLYGW"> F  </i>
   <i type="int" name="NKREDLFX">     1</i>
   <i type="int" name="NKREDLFY">     1</i>
   <i type="int" name="NKREDLFZ">     1</i>
   <i type="int" name="MAXMEM">  2800</i>
   <i type="int" name="TELESCOPE">     0</i>
   <i type="int" name="TAUPAR">     1</i>
   <i type="int" name="OMEGAPAR">    -1</i>
   <i name="LAMBDA">      1.00000000</i>
  </separator>
  <separator name="External order field" >
   <i name="OFIELD_KAPPA">      0.00000000</i>
   <v name="OFIELD_K">      0.00000000      0.00000000      0.00000000</v>
   <i name="OFIELD_Q6_NEAR">      0.00000000</i>
   <i name="OFIELD_Q6_FAR">      0.00000000</i>
   <i name="OFIELD_A">      0.00000000</i>
  </separator>
 </parameters>
 <atominfo>
  <atoms>       2 </atoms>
  <types>       1 </types>
  <array name="atoms" >
   <dimension dim="1">ion</dimension>
   <field type="string">element</field>
   <field type="int">atomtype</field>
   <set>
    <rc><c>Si</c><c>   1</c></rc>
    <rc><c>Si</c><c>   1</c></rc>
   </set>
  </array>
  <array name="atomtypes" >
   <dimension dim="1">type</dimension>
   <field type="int">atomspertype</field>
   <field type="string">element</field>
   <field>mass</field>
   <field>valence</field>
   <field type="string">pseudopotential</field>
   <set>
    <rc><c>   2</c><c>Si</c><c>     28.08500000</c><c>      4.00000000</c><c>  PAW_PBE Si 05Jan2001                  </c></rc>
   </set>
  </array>
 </atominfo>
 <structure name="initialpos" >
  <crystal>
   <varray name="basis" >
    <v>       0.00000000       2.73355606       2.73355606 </v>
    <v>       2.73355606       0.00000000       2.73355606 </v>
    <v>       2.73355606       2.73355606       0.00000000 </v>
   </varray>
   <i name="volume">     40.85205889 </i>
   <varray name="rec_basis" >
    <v>      -0.18291192       0.18291192       0.18291192 </v>
    <v>       0.18291192      -0.18291192       0.18291192 </v>
    <v>       0.18291192       0.18291192      -0.18291192 </v>
   </varray>
  </crystal>
  <varray name="positions" >
   <v>       0.00000000       0.00000000       0.00000000 </v>
   <v>       0.25000000       0.25000000       0.25000000 </v>
  </varray>
 </structure>
 <calculation>
  <scstep>
   <time name="dav">    1.39    1.40</time>
   <time name="total">    1.42    1.43</time>
   <energy>
    <i name="alphaZ">      3.29610127 </i>
    <i name="ewald">   -227.01197892 </i>
    <i name="hartreedc">    -11.30989391 </i>
    <i name="XCdc">    -18.68166516 </i>
    <i name="pawpsdc">    176.24759923 </i>
    <i name="pawaedc">   -141.06103558 </i>
    <i name="eentropy">     -0.00001982 </i>
    <i name="bandstr">     14.45783520 </i>
    <i name="atom">    206.13006478 </i>
    <i name="e_fr_energy">      2.06700710 </i>
    <i name="e_wo_entrp">      2.06702692 </i>
    <i name="e_0_energy">      2.06701701 </i>
   </energy>
  </scstep>
  <scstep>
   <time name="dav">    2.17    2.17</time>
   <time name="total">    2.17    2.17</time>
   <energy>
    <i name="e_fr_energy">    -10.84696788 </i>
    <i name="e_wo_entrp">    -10.84696788 </i>
    <i name="e_0_energy">    -10.84696788 </i>
   </energy>
  </scstep>
  <scstep>
   <time name="dav">    1.93    1.95</time>
   <time name="total">    1.93    1.95</time>
   <energy>
    <i name="e_fr_energy">    -11.01234483 </i>
    <i name="e_wo_entrp">    -11.01234483 </i>
    <i name="e_0_energy">    -11.01234483 </i>
   </energy>
  </scstep>
  <scstep>
   <time name="dav">    2.12    2.12</time>
   <time name="total">    2.12    2.12</time>
   <energy>
    <i name="e_fr_energy">    -11.01298016 </i>
    <i name="e_wo_entrp">    -11.01298016 </i>
    <i name="e_0_energy">    -11.01298016 </i>
   </energy>
  </scstep>
  <scstep>
   <time name="dav">    1.80    1.80</time>
   <time name="total">    1.91    1.91</time>
   <energy>
    <i name="e_fr_energy">    -11.01298067 </i>
    <i name="e_wo_entrp">    -11.01298067 </i>
    <i name="e_0_energy">    -11.01298067 </i>
   </energy>
  </scstep>
  <scstep>
   <time name="dav">    1.56    1.56</time>
   <time name="total">    1.67    1.67</time>
   <energy>
    <i name="e_fr_energy">    -10.89703244 </i>
    <i name="e_wo_entrp">    -10.89703244 </i>
    <i name="e_0_energy">    -10.89703244 </i>
   </energy>
  </scstep>
  <scstep>
   <time name="dav">    1.83    1.83</time>
   <time name="total">    1.95    1.95</time>
   <energy>
    <i name="e_fr_energy">    -10.84342182 </i>
    <i name="e_wo_entrp">    -10.84342182 </i>
    <i name="e_0_energy">    -10.84342182 </i>
   </energy>
  </scstep>
  <scstep>
   <time name="dav">    1.62    1.62</time>
   <time name="total">    1.73    1.73</time>
   <energy>
    <i name="e_fr_energy">    -10.84448868 </i>
    <i name="e_wo_entrp">    -10.84448868 </i>
    <i name="e_0_energy">    -10.84448868 </i>
   </energy>
  </scstep>
  <scstep>
   <time name="dav">    1.90    1.90</time>
   <time name="total">    2.01    2.01</time>
   <energy>
    <i name="e_fr_energy">    -10.84468603 </i>
    <i name="e_wo_entrp">    -10.84468603 </i>
    <i name="e_0_energy">    -10.84468603 </i>
   </energy>
  </scstep>
  <scstep>
   <time name="dav">    1.03    1.03</time>
   <time name="total">    1.05    1.05</time>
   <energy>
    <i name="alphaZ">      3.29610127 </i>
    <i name="ewald">   -227.01197892 </i>
    <i name="hartreedc">    -15.15732835 </i>
    <i name="XCdc">    -18.05374449 </i>
    <i name="pawpsdc">    863.44808547 </i>
    <i name="pawaedc">   -828.47005679 </i>
    <i name="eentropy">     -0.00000000 </i>
    <i name="bandstr">      4.97414617 </i>
    <i name="atom">    206.13006478 </i>
    <i name="e_fr_energy">    -10.84471086 </i>
    <i name="e_wo_entrp">    -10.84471086 </i>
    <i name="e_0_energy">    -10.84471086 </i>
   </energy>
  </scstep>
  <structure>
   <crystal>
    <varray name="basis" >
     <v>       0.00000000       2.73355606       2.73355606 </v>
     <v>       2.73355606       0.00000000       2.73355606 </v>
     <v>       2.73355606       2.73355606       0.00000000 </v>
    </varray>
    <i name="volume">     40.85205889 </i>
    <varray name="rec_basis" >
     <v>      -0.18291192       0.18291192       0.18291192 </v>
     <v>       0.18291192      -0.18291192       0.18291192 </v>
     <v>       0.18291192       0.18291192      -0.18291192 </v>
    </varray>
   </crystal>
   <varray name="positions" >
    <v>       0.00000000       0.00000000       0.00000000 </v>
    <v>       0.25000000       0.25000000       0.25000000 </v>
   </varray>
  </structure>
  <varray name="forces" >
   <v>      -0.00000000       0.00000000       0.00000000 </v>
   <v>       0.00000000      -0.00000000      -0.00000000 </v>
  </varray>
  <varray name="stress" >
   <v>      -0.26001469       0.00000000      -0.00000000 </v>
   <v>       0.00000000      -0.26001469      -0.00000000 </v>
   <v>       0.00000000       0.00000000      -0.26001469 </v>
  </varray>
  <energy>
   <i name="e_fr_energy">    -10.84471086 </i>
   <i name="e_wo_entrp">    -10.84471086 </i>
   <i name="e_0_energy">     -0.00000000 </i>
  </energy>
  <time name="totalsc">   18.87   18.92</time>
  <eigenvalues>
   <array>
    <dimension dim="1">band</dimension>
    <dimension dim="2">kpoint</dimension>
    <dimension dim="3">spin</dimension>
    <field>eigene</field>
    <field>occ</field>
    <set>
     <set comment="spin 1">
      <set comment="kpoint 1">
       <r>   -6.1962    1.0000 </r>
       <r>    5.6258    1.0000 </r>
       <r>    5.6258    1.0000 </r>
       <r>    5.6258    1.0000 </r>
       <r>    8.1852    0.0000 </r>
       <r>    8.1852    0.0000 </r>
       <r>    8.1852    0.0000 </r>
       <r>    8.7682    0.0000 </r>
      </set>
      <set comment="kpoint 2">
       <r>   -6.1516    1.0000 </r>
       <r>    5.1476    1.0000 </r>
       <r>    5.5522    1.0000 </r>
       <r>    5.5522    1.0000 </r>
       <r>    8.2282    0.0000 </r>
       <r>    8.2933    0.0000 </r>
       <r>    8.2933    0.0000 </r>
       <r>    9.1272    0.0000 </r>
      </set>
      <set comment="kpoint 3">
       <r>   -6.0183    1.0000 </r>
       <r>    4.1688    1.0000 </r>
       <r>    5.3702    1.0000 </r>
       <r>    5.3702    1.0000 </r>
       <r>    8.0986    0.0000 </r>
       <r>    8.5628    0.0000 </r>
       <r>    8.5628    0.0000 </r>
       <r>   10.0382    0.0000 </r>
      </set>
      <set comment="kpoint 4">
       <r>   -5.7988    1.0000 </r>
       <r>    3.0791    1.0000 </r>
       <r>    5.1472    1.0000 </r>
       <r>    5.1472    1.0000 </r>
       <r>    7.8773    0.0000 </r>
       <r>    8.8704    0.0000 </r>
       <r>    8.8704    0.0000 </r>
       <r>   11.0894    0.0000 </r>
      </set>
      <set comment="kpoint 5">
       <r>   -5.4976    1.0000 </r>
       <r>    1.9997    1.0000 </r>
       <r>    4.9304    1.0000 </r>
       <r>    4.9304    1.0000 </r>
       <r>    7.6454    0.0000 </r>
       <r>    9.0901    0.0000 </r>
       <r>    9.0901    0.0000 </r>
       <r>   12.1351    0.0000 </r>
      </set>
      <set comment="kpoint 6">
       <r>   -5.1244    1.0000 </r>
       <r>    0.9804    1.0000 </r>
       <r>    4.7445    1.0000 </r>
       <r>    4.7445    1.0000 </r>
       <r>    7.4384    0.0000 </r>
       <r>    9.1583    0.0000 </r>
       <r>    9.1583    0.0000 </r>
       <r>   13.0595    0.0000 </r>
      </set>
      <set comment="kpoint 7">
       <r>   -4.6995    1.0000 </r>
       <r>    0.0604    1.0000 </r>
       <r>    4.5999    1.0000 </r>
       <r>    4.5999    1.0000 </r>
       <r>    7.2744    0.0000 </r>
       <r>    9.1142    0.0000 </r>
       <r>    9.1142    0.0000 </r>
       <r>   13.4673    0.0000 </r>
      </set>
      <set comment="kpoint 8">
       <r>   -4.2717    1.0000 </r>
       <r>   -0.7016    1.0000 </r>
       <r>    4.5020    1.0000 </r>
       <r>    4.5020    1.0000 </r>
       <r>    7.1619    0.0000 </r>
       <r>    9.0382    0.0000 </r>
       <r>    9.0382    0.0000 </r>
       <r>   13.4147    0.0000 </r>
      </set>
      <set comment="kpoint 9">
       <r>   -3.9619    1.0000 </r>
       <r>   -1.1796    1.0000 </r>
       <r>    4.4528    1.0000 </r>
       <r>    4.4528    1.0000 </r>
       <r>    7.1055    0.0000 </r>
       <r>    8.9883    0.0000 </r>
       <r>    8.9883    0.0000 </r>
       <r>   13.3409    0.0000 </r>
      </set>
      <set comment="kpoint 10">
       <r>   -6.1367    1.0000 </r>
       <r>    5.2386    1.0000 </r>
       <r>    5.3963    1.0000 </r>
       <r>    5.3963    1.0000 </r>
       <r>    8.0439    0.0000 </r>
       <r>    8.4881    0.0000 </r>
       <r>    8.4881    0.0000 </r>
       <r>    9.1401    0.0000 </r>
      </set>
      <set comment="kpoint 11">
       <r>   -6.0328    1.0000 </r>
       <r>    4.4560    1.0000 </r>
       <r>    5.1660    1.0000 </r>
       <r>    5.3158    1.0000 </r>
       <r>    8.0370    0.0000 </r>
       <r>    8.5623    0.0000 </r>
       <r>    8.8176    0.0000 </r>
       <r>    9.8095    0.0000 </r>
      </set>
      <set comment="kpoint 12">
       <r>   -5.8418    1.0000 </r>
       <r>    3.4188    1.0000 </r>
       <r>    4.9232    1.0000 </r>
       <r>    5.1453    1.0000 </r>
       <r>    8.1042    0.0000 </r>
       <r>    8.5561    0.0000 </r>
       <r>    9.1702    0.0000 </r>
       <r>   10.6906    0.0000 </r>
      </set>
      <set comment="kpoint 13">
       <r>   -5.5672    1.0000 </r>
       <r>    2.3490    1.0000 </r>
       <r>    4.7056    1.0000 </r>
       <r>    4.9160    1.0000 </r>
       <r>    7.9802    0.0000 </r>
       <r>    8.7436    0.0000 </r>
       <r>    9.4280    0.0000 </r>
       <r>   11.3154    0.0000 </r>
      </set>
      <set comment="kpoint 14">
       <r>   -5.2167    1.0000 </r>
       <r>    1.3171    1.0000 </r>
       <r>    4.5324    1.0000 </r>
       <r>    4.6823    1.0000 </r>
       <r>    7.7927    0.0000 </r>
       <r>    8.8980    0.0000 </r>
       <r>    9.5136    0.0000 </r>
       <r>   11.7596    0.0000 </r>
      </set>
      <set comment="kpoint 15">
       <r>   -4.8057    1.0000 </r>
       <r>    0.3664    1.0000 </r>
       <r>    4.4122    1.0000 </r>
       <r>    4.4721    1.0000 </r>
       <r>    7.6247    0.0000 </r>
       <r>    8.9312    0.0000 </r>
       <r>    9.4519    0.0000 </r>
       <r>   12.3605    0.0000 </r>
      </set>
      <set comment="kpoint 16">
       <r>   -4.3701    1.0000 </r>
       <r>   -0.4535    1.0000 </r>
       <r>    4.2996    1.0000 </r>
       <r>    4.3483    1.0000 </r>
       <r>    7.4991    0.0000 </r>
       <r>    8.9092    0.0000 </r>
       <r>    9.3261    0.0000 </r>
       <r>   13.0568    0.0000 </r>
      </set>
      <set comment="kpoint 17">
       <r>   -4.0004    1.0000 </r>
       <r>   -1.0450    1.0000 </r>
       <r>    4.1721    1.0000 </r>
       <r>    4.3407    1.0000 </r>
       <r>    7.4248    0.0000 </r>
       <r>    8.9016    0.0000 </r>
       <r>    9.2046    0.0000 </r>
       <r>   13.4318    0.0000 </r>
      </set>
      <set comment="kpoint 18">
       <r>   -3.8805    1.0000 </r>
       <r>   -1.2203    1.0000 </r>
       <r>    4.0949    1.0000 </r>
       <r>    4.3870    1.0000 </r>
       <r>    7.4048    0.0000 </r>
       <r>    8.9427    0.0000 </r>
       <r>    9.1231    0.0000 </r>
       <r>   13.4930    0.0000 </r>
      </set>
      <set comment="kpoint 19">
       <r>   -4.1071    1.0000 </r>
       <r>   -0.8823    1.0000 </r>
       <r>    4.0713    1.0000 </r>
       <r>    4.4841    1.0000 </r>
       <r>    7.4399    0.0000 </r>
       <r>    9.0378    0.0000 </r>
       <r>    9.0913    0.0000 </r>
       <r>   13.4948    0.0000 </r>
      </set>
      <set comment="kpoint 20">
       <r>   -4.5147    1.0000 </r>
       <r>   -0.1980    1.0000 </r>
       <r>    4.1049    1.0000 </r>
       <r>    4.6274    1.0000 </r>
       <r>    7.5296    0.0000 </r>
       <r>    9.0947    0.0000 </r>
       <r>    9.1697    0.0000 </r>
       <r>   13.2941    0.0000 </r>
      </set>
      <set comment="kpoint 21">
       <r>   -4.9483    1.0000 </r>
       <r>    0.6728    1.0000 </r>
       <r>    4.1974    1.0000 </r>
       <r>    4.8106    1.0000 </r>
       <r>    7.6709    0.0000 </r>
       <r>    9.0903    0.0000 </r>
       <r>    9.2898    0.0000 </r>
       <r>   12.7089    0.0000 </r>
      </set>
      <set comment="kpoint 22">
       <r>   -5.3416    1.0000 </r>
       <r>    1.6542    1.0000 </r>
       <r>    4.3492    1.0000 </r>
       <r>    5.0233    1.0000 </r>
       <r>    7.8566    0.0000 </r>
       <r>    9.0037    0.0000 </r>
       <r>    9.3089    0.0000 </r>
       <r>   12.0310    0.0000 </r>
      </set>
      <set comment="kpoint 23">
       <r>   -5.6679    1.0000 </r>
       <r>    2.7000    1.0000 </r>
       <r>    4.5582    1.0000 </r>
       <r>    5.2476    1.0000 </r>
       <r>    8.0707    0.0000 </r>
       <r>    8.7903    0.0000 </r>
       <r>    9.1349    0.0000 </r>
       <r>   11.3304    0.0000 </r>
      </set>
      <set comment="kpoint 24">
       <r>   -5.9152    1.0000 </r>
       <r>    3.7536    1.0000 </r>
       <r>    4.8228    1.0000 </r>
       <r>    5.4489    1.0000 </r>
       <r>    8.2808    0.0000 </r>
       <r>    8.5124    0.0000 </r>
       <r>    8.7866    0.0000 </r>
       <r>   10.5018    0.0000 </r>
      </set>
      <set comment="kpoint 25">
       <r>   -6.0773    1.0000 </r>
       <r>    4.6690    1.0000 </r>
       <r>    5.1662    1.0000 </r>
       <r>    5.5701    1.0000 </r>
       <r>    8.3079    0.0000 </r>
       <r>    8.3983    0.0000 </r>
       <r>    8.4195    0.0000 </r>
       <r>    9.6492    0.0000 </r>
      </set>
      <set comment="kpoint 26">
       <r>   -5.9585    1.0000 </r>
       <r>    4.3936    1.0000 </r>
       <r>    4.9057    1.0000 </r>
       <r>    4.9057    1.0000 </r>
       <r>    7.6949    0.0000 </r>
       <r>    9.1984    0.0000 </r>
       <r>    9.1984    0.0000 </r>
       <r>    9.7981    0.0000 </r>
      </set>
      <set comment="kpoint 27">
       <r>   -5.7963    1.0000 </r>
       <r>    3.6215    1.0000 </r>
       <r>    4.6464    1.0000 </r>
       <r>    4.7383    1.0000 </r>
       <r>    7.6488    0.0000 </r>
       <r>    9.2642    0.0000 </r>
       <r>    9.6072    0.0000 </r>
       <r>   10.2482    0.0000 </r>
      </set>
      <set comment="kpoint 28">
       <r>   -5.5494    1.0000 </r>
       <r>    2.6415    1.0000 </r>
       <r>    4.4212    1.0000 </r>
       <r>    4.5212    1.0000 </r>
       <r>    7.8013    0.0000 </r>
       <r>    9.1711    0.0000 </r>
       <r>    9.9318    0.0000 </r>
       <r>   10.4480    0.0000 </r>
      </set>
      <set comment="kpoint 29">
       <r>   -5.2234    1.0000 </r>
       <r>    1.6425    1.0000 </r>
       <r>    4.2477    1.0000 </r>
       <r>    4.2511    1.0000 </r>
       <r>    7.9136    0.0000 </r>
       <r>    9.1590    0.0000 </r>
       <r>   10.0760    0.0000 </r>
       <r>   10.5722    0.0000 </r>
      </set>
      <set comment="kpoint 30">
       <r>   -4.8303    1.0000 </r>
       <r>    0.6909    1.0000 </r>
       <r>    3.9812    1.0000 </r>
       <r>    4.1343    1.0000 </r>
       <r>    7.8968    0.0000 </r>
       <r>    9.1512    0.0000 </r>
       <r>   10.0351    0.0000 </r>
       <r>   10.9954    0.0000 </r>
      </set>
      <set comment="kpoint 31">
       <r>   -4.3966    1.0000 </r>
       <r>   -0.1614    1.0000 </r>
       <r>    3.7409    1.0000 </r>
       <r>    4.0841    1.0000 </r>
       <r>    7.8337    0.0000 </r>
       <r>    9.0991    0.0000 </r>
       <r>    9.8912    0.0000 </r>
       <r>   11.7295    0.0000 </r>
      </set>
      <set comment="kpoint 32">
       <r>   -3.9882    1.0000 </r>
       <r>   -0.8355    1.0000 </r>
       <r>    3.5450    1.0000 </r>
       <r>    4.0976    1.0000 </r>
       <r>    7.7922    0.0000 </r>
       <r>    9.0561    0.0000 </r>
       <r>    9.7237    0.0000 </r>
       <r>   12.6291    0.0000 </r>
      </set>
      <set comment="kpoint 33">
       <r>   -3.7616    1.0000 </r>
       <r>   -1.1684    1.0000 </r>
       <r>    3.4033    1.0000 </r>
       <r>    4.1721    1.0000 </r>
       <r>    7.7978    0.0000 </r>
       <r>    9.0610    0.0000 </r>
       <r>    9.5793    0.0000 </r>
       <r>   13.5003    0.0000 </r>
      </set>
      <set comment="kpoint 34">
       <r>   -3.8844    1.0000 </r>
       <r>   -0.9902    1.0000 </r>
       <r>    3.3225    1.0000 </r>
       <r>    4.3035    1.0000 </r>
       <r>    7.8563    0.0000 </r>
       <r>    9.1265    0.0000 </r>
       <r>    9.4772    0.0000 </r>
       <r>   13.7579    0.0000 </r>
      </set>
      <set comment="kpoint 35">
       <r>   -4.2563    1.0000 </r>
       <r>   -0.4030    1.0000 </r>
       <r>    3.3085    1.0000 </r>
       <r>    4.4842    1.0000 </r>
       <r>    7.9640    0.0000 </r>
       <r>    9.2454    0.0000 </r>
       <r>    9.4099    0.0000 </r>
       <r>   13.1932    0.0000 </r>
      </set>
      <set comment="kpoint 36">
       <r>   -4.6920    1.0000 </r>
       <r>    0.4015    1.0000 </r>
       <r>    3.3675    1.0000 </r>
       <r>    4.7042    1.0000 </r>
       <r>    8.1136    0.0000 </r>
       <r>    9.3411    0.0000 </r>
       <r>    9.3810    0.0000 </r>
       <r>   12.4131    0.0000 </r>
      </set>
      <set comment="kpoint 37">
       <r>   -5.1021    1.0000 </r>
       <r>    1.3179    1.0000 </r>
       <r>    3.5084    1.0000 </r>
       <r>    4.9470    1.0000 </r>
       <r>    8.2938    0.0000 </r>
       <r>    9.2028    0.0000 </r>
       <r>    9.4353    0.0000 </r>
       <r>   11.7301    0.0000 </r>
      </set>
      <set comment="kpoint 38">
       <r>   -5.4515    1.0000 </r>
       <r>    2.2718    1.0000 </r>
       <r>    3.7536    1.0000 </r>
       <r>    5.1852    1.0000 </r>
       <r>    8.4816    0.0000 </r>
       <r>    8.9550    0.0000 </r>
       <r>    9.2554    0.0000 </r>
       <r>   11.2972    0.0000 </r>
      </set>
      <set comment="kpoint 39">
       <r>   -5.7250    1.0000 </r>
       <r>    3.1395    1.0000 </r>
       <r>    4.1717    1.0000 </r>
       <r>    5.3736    1.0000 </r>
       <r>    8.5859    0.0000 </r>
       <r>    8.6760    0.0000 </r>
       <r>    8.8875    0.0000 </r>
       <r>   10.9825    0.0000 </r>
      </set>
      <set comment="kpoint 40">
       <r>   -5.6630    1.0000 </r>
       <r>    3.4028    1.0000 </r>
       <r>    4.3731    1.0000 </r>
       <r>    4.3731    1.0000 </r>
       <r>    7.2712    0.0000 </r>
       <r>    9.7611    0.0000 </r>
       <r>   10.0906    0.0000 </r>
       <r>   10.0906    0.0000 </r>
      </set>
      <set comment="kpoint 41">
       <r>   -5.4440    1.0000 </r>
       <r>    2.7092    1.0000 </r>
       <r>    4.1277    1.0000 </r>
       <r>    4.1362    1.0000 </r>
       <r>    7.2327    0.0000 </r>
       <r>    9.4588    0.0000 </r>
       <r>   10.3867    0.0000 </r>
       <r>   10.5128    0.0000 </r>
      </set>
      <set comment="kpoint 42">
       <r>   -5.1439    1.0000 </r>
       <r>    1.8461    1.0000 </r>
       <r>    3.8209    1.0000 </r>
       <r>    3.9537    1.0000 </r>
       <r>    7.4088    0.0000 </r>
       <r>    9.3707    0.0000 </r>
       <r>   10.3454    0.0000 </r>
       <r>   10.7588    0.0000 </r>
      </set>
      <set comment="kpoint 43">
       <r>   -4.7718    1.0000 </r>
       <r>    0.9577    1.0000 </r>
       <r>    3.4833    1.0000 </r>
       <r>    3.8344    1.0000 </r>
       <r>    7.5469    0.0000 </r>
       <r>    9.6614    0.0000 </r>
       <r>   10.2025    0.0000 </r>
       <r>   10.7824    0.0000 </r>
      </set>
      <set comment="kpoint 44">
       <r>   -4.3471    1.0000 </r>
       <r>    0.1183    1.0000 </r>
       <r>    3.1665    1.0000 </r>
       <r>    3.7827    1.0000 </r>
       <r>    7.5800    0.0000 </r>
       <r>   10.0085    0.0000 </r>
       <r>   10.3708    0.0000 </r>
       <r>   10.6535    0.0000 </r>
      </set>
      <set comment="kpoint 45">
       <r>   -3.9176    1.0000 </r>
       <r>   -0.5972    1.0000 </r>
       <r>    2.8971    1.0000 </r>
       <r>    3.7993    1.0000 </r>
       <r>    7.5953    0.0000 </r>
       <r>    9.9021    0.0000 </r>
       <r>   10.4664    0.0000 </r>
       <r>   11.2615    0.0000 </r>
      </set>
      <set comment="kpoint 46">
       <r>   -3.6057    1.0000 </r>
       <r>   -1.0519    1.0000 </r>
       <r>    2.6895    1.0000 </r>
       <r>    3.8827    1.0000 </r>
       <r>    7.6544    0.0000 </r>
       <r>    9.8268    0.0000 </r>
       <r>   10.2829    0.0000 </r>
       <r>   12.3080    0.0000 </r>
      </set>
      <set comment="kpoint 47">
       <r>   -3.6128    1.0000 </r>
       <r>   -1.0396    1.0000 </r>
       <r>    2.5536    1.0000 </r>
       <r>    4.0282    1.0000 </r>
       <r>    7.7753    0.0000 </r>
       <r>    9.8015    0.0000 </r>
       <r>   10.1273    0.0000 </r>
       <r>   13.4241    0.0000 </r>
      </set>
      <set comment="kpoint 48">
       <r>   -3.9321    1.0000 </r>
       <r>   -0.5690    1.0000 </r>
       <r>    2.4992    1.0000 </r>
       <r>    4.2285    1.0000 </r>
       <r>    7.9559    0.0000 </r>
       <r>    9.8259    0.0000 </r>
       <r>    9.9984    0.0000 </r>
       <r>   13.1245    0.0000 </r>
      </set>
      <set comment="kpoint 49">
       <r>   -4.3620    1.0000 </r>
       <r>    0.1453    1.0000 </r>
       <r>    2.5416    1.0000 </r>
       <r>    4.4718    1.0000 </r>
       <r>    8.1806    0.0000 </r>
       <r>    9.8572    0.0000 </r>
       <r>    9.8765    0.0000 </r>
       <r>   12.2162    0.0000 </r>
      </set>
      <set comment="kpoint 50">
       <r>   -4.7846    1.0000 </r>
       <r>    0.9478    1.0000 </r>
       <r>    2.7131    1.0000 </r>
       <r>    4.7378    1.0000 </r>
       <r>    8.4154    0.0000 </r>
       <r>    9.6273    0.0000 </r>
       <r>    9.8531    0.0000 </r>
       <r>   11.5030    0.0000 </r>
      </set>
      <set comment="kpoint 51">
       <r>   -5.1541    1.0000 </r>
       <r>    1.7004    1.0000 </r>
       <r>    3.0917    1.0000 </r>
       <r>    4.9934    1.0000 </r>
       <r>    8.5872    0.0000 </r>
       <r>    9.2859    0.0000 </r>
       <r>    9.5718    0.0000 </r>
       <r>   11.2276    0.0000 </r>
      </set>
      <set comment="kpoint 52">
       <r>   -5.2527    1.0000 </r>
       <r>    2.3679    1.0000 </r>
       <r>    3.8858    1.0000 </r>
       <r>    3.8858    1.0000 </r>
       <r>    6.8692    0.0000 </r>
       <r>    8.9808    0.0000 </r>
       <r>   11.0711    0.0000 </r>
       <r>   11.0711    0.0000 </r>
      </set>
      <set comment="kpoint 53">
       <r>   -4.9790    1.0000 </r>
       <r>    1.7445    1.0000 </r>
       <r>    3.5989    1.0000 </r>
       <r>    3.6895    1.0000 </r>
       <r>    6.8646    0.0000 </r>
       <r>    8.6593    0.0000 </r>
       <r>   11.3349    0.0000 </r>
       <r>   11.4762    0.0000 </r>
      </set>
      <set comment="kpoint 54">
       <r>   -4.6299    1.0000 </r>
       <r>    1.0139    1.0000 </r>
       <r>    3.1990    1.0000 </r>
       <r>    3.5576    1.0000 </r>
       <r>    7.0551    0.0000 </r>
       <r>    8.6630    0.0000 </r>
       <r>   11.2963    0.0000 </r>
       <r>   11.6246    0.0000 </r>
      </set>
      <set comment="kpoint 55">
       <r>   -4.2196    1.0000 </r>
       <r>    0.2658    1.0000 </r>
       <r>    2.7802    1.0000 </r>
       <r>    3.4950    1.0000 </r>
       <r>    7.1765    0.0000 </r>
       <r>    9.1155    0.0000 </r>
       <r>   11.1668    0.0000 </r>
       <r>   11.5510    0.0000 </r>
      </set>
      <set comment="kpoint 56">
       <r>   -3.7823    1.0000 </r>
       <r>   -0.4254    1.0000 </r>
       <r>    2.4092    1.0000 </r>
       <r>    3.5037    1.0000 </r>
       <r>    7.2285    0.0000 </r>
       <r>    9.9135    0.0000 </r>
       <r>   11.0386    0.0000 </r>
       <r>   11.3709    0.0000 </r>
      </set>
      <set comment="kpoint 57">
       <r>   -3.4094    1.0000 </r>
       <r>   -0.9443    1.0000 </r>
       <r>    2.1152    1.0000 </r>
       <r>    3.5823    1.0000 </r>
       <r>    7.3054    0.0000 </r>
       <r>   10.7602    0.0000 </r>
       <r>   11.0900    0.0000 </r>
       <r>   11.1647    0.0000 </r>
      </set>
      <set comment="kpoint 58">
       <r>   -3.3023    1.0000 </r>
       <r>   -1.0789    1.0000 </r>
       <r>    1.9142    1.0000 </r>
       <r>    3.7277    1.0000 </r>
       <r>    7.4468    0.0000 </r>
       <r>   10.7997    0.0000 </r>
       <r>   10.9695    0.0000 </r>
       <r>   12.1083    0.0000 </r>
      </set>
      <set comment="kpoint 59">
       <r>   -3.5543    1.0000 </r>
       <r>   -0.7400    1.0000 </r>
       <r>    1.8239    1.0000 </r>
       <r>    3.9325    1.0000 </r>
       <r>    7.6576    0.0000 </r>
       <r>   10.7683    0.0000 </r>
       <r>   10.7795    0.0000 </r>
       <r>   13.0205    0.0000 </r>
      </set>
      <set comment="kpoint 60">
       <r>   -3.9703    1.0000 </r>
       <r>   -0.1522    1.0000 </r>
       <r>    1.8783    1.0000 </r>
       <r>    4.1852    1.0000 </r>
       <r>    7.9244    0.0000 </r>
       <r>   10.5341    0.0000 </r>
       <r>   10.7271    0.0000 </r>
       <r>   12.1209    0.0000 </r>
      </set>
      <set comment="kpoint 61">
       <r>   -4.3997    1.0000 </r>
       <r>    0.4594    1.0000 </r>
       <r>    2.1493    1.0000 </r>
       <r>    4.4651    1.0000 </r>
       <r>    8.2095    0.0000 </r>
       <r>   10.1336    0.0000 </r>
       <r>   10.4620    0.0000 </r>
       <r>   11.5252    0.0000 </r>
      </set>
      <set comment="kpoint 62">
       <r>   -4.7314    1.0000 </r>
       <r>    1.3248    1.0000 </r>
       <r>    3.4773    1.0000 </r>
       <r>    3.4773    1.0000 </r>
       <r>    6.5438    0.0000 </r>
       <r>    8.1424    0.0000 </r>
       <r>   12.1035    0.0000 </r>
       <r>   12.1035    0.0000 </r>
      </set>
      <set comment="kpoint 63">
       <r>   -4.4062    1.0000 </r>
       <r>    0.7542    1.0000 </r>
       <r>    3.1816    1.0000 </r>
       <r>    3.3290    1.0000 </r>
       <r>    6.5856    0.0000 </r>
       <r>    7.8942    0.0000 </r>
       <r>   12.3829    0.0000 </r>
       <r>   12.4727    0.0000 </r>
      </set>
      <set comment="kpoint 64">
       <r>   -4.0138    1.0000 </r>
       <r>    0.1383    1.0000 </r>
       <r>    2.7206    1.0000 </r>
       <r>    3.2507    1.0000 </r>
       <r>    6.7776    0.0000 </r>
       <r>    8.0518    0.0000 </r>
       <r>   12.3608    0.0000 </r>
       <r>   12.5276    0.0000 </r>
      </set>
      <set comment="kpoint 65">
       <r>   -3.5785    1.0000 </r>
       <r>   -0.4645    1.0000 </r>
       <r>    2.2387    1.0000 </r>
       <r>    3.2448    1.0000 </r>
       <r>    6.8788    0.0000 </r>
       <r>    8.6878    0.0000 </r>
       <r>   12.2463    0.0000 </r>
       <r>   12.3893    0.0000 </r>
      </set>
      <set comment="kpoint 66">
       <r>   -3.1664    1.0000 </r>
       <r>   -0.9741    1.0000 </r>
       <r>    1.8286    1.0000 </r>
       <r>    3.3113    1.0000 </r>
       <r>    6.9645    0.0000 </r>
       <r>    9.6174    0.0000 </r>
       <r>   12.1248    0.0000 </r>
       <r>   12.1792    0.0000 </r>
      </set>
      <set comment="kpoint 67">
       <r>   -2.9611    1.0000 </r>
       <r>   -1.2041    1.0000 </r>
       <r>    1.5380    1.0000 </r>
       <r>    3.4473    1.0000 </r>
       <r>    7.1076    0.0000 </r>
       <r>   10.6930    0.0000 </r>
       <r>   11.9467    0.0000 </r>
       <r>   12.0415    0.0000 </r>
      </set>
      <set comment="kpoint 68">
       <r>   -3.1449    1.0000 </r>
       <r>   -0.9877    1.0000 </r>
       <r>    1.4068    1.0000 </r>
       <r>    3.6470    1.0000 </r>
       <r>    7.3260    0.0000 </r>
       <r>   11.6247    0.0000 </r>
       <r>   11.6681    0.0000 </r>
       <r>   12.2131    0.0000 </r>
      </set>
      <set comment="kpoint 69">
       <r>   -3.5422    1.0000 </r>
       <r>   -0.5517    1.0000 </r>
       <r>    1.4958    1.0000 </r>
       <r>    3.8993    1.0000 </r>
       <r>    7.6088    0.0000 </r>
       <r>   11.2093    0.0000 </r>
       <r>   11.5363    0.0000 </r>
       <r>   12.2682    0.0000 </r>
      </set>
      <set comment="kpoint 70">
       <r>   -4.1041    1.0000 </r>
       <r>    0.2923    1.0000 </r>
       <r>    3.1626    1.0000 </r>
       <r>    3.1627    1.0000 </r>
       <r>    6.3267    0.0000 </r>
       <r>    7.4291    0.0000 </r>
       <r>   13.1704    0.0000 </r>
       <r>   13.1704    0.0000 </r>
      </set>
      <set comment="kpoint 71">
       <r>   -3.7316    1.0000 </r>
       <r>   -0.2353    1.0000 </r>
       <r>    2.8824    1.0000 </r>
       <r>    3.0659    1.0000 </r>
       <r>    6.4196    0.0000 </r>
       <r>    7.2837    0.0000 </r>
       <r>   13.4681    0.0000 </r>
       <r>   13.4986    0.0000 </r>
      </set>
      <set comment="kpoint 72">
       <r>   -3.3051    1.0000 </r>
       <r>   -0.7609    1.0000 </r>
       <r>    2.4044    1.0000 </r>
       <r>    3.0421    1.0000 </r>
       <r>    6.5913    0.0000 </r>
       <r>    7.6289    0.0000 </r>
       <r>   13.4620    0.0000 </r>
       <r>   13.4749    0.0000 </r>
      </set>
      <set comment="kpoint 73">
       <r>   -2.8713    1.0000 </r>
       <r>   -1.2305    1.0000 </r>
       <r>    1.9082    1.0000 </r>
       <r>    3.0920    1.0000 </r>
       <r>    6.6884    0.0000 </r>
       <r>    8.4349    0.0000 </r>
       <r>   13.2828    0.0000 </r>
       <r>   13.3587    0.0000 </r>
      </set>
      <set comment="kpoint 74">
       <r>   -2.5994    1.0000 </r>
       <r>   -1.4923    1.0000 </r>
       <r>    1.5163    1.0000 </r>
       <r>    3.2134    1.0000 </r>
       <r>    6.8255    0.0000 </r>
       <r>    9.4716    0.0000 </r>
       <r>   12.9948    0.0000 </r>
       <r>   13.2387    0.0000 </r>
      </set>
      <set comment="kpoint 75">
       <r>   -2.7599    1.0000 </r>
       <r>   -1.3185    1.0000 </r>
       <r>    1.3191    1.0000 </r>
       <r>    3.4015    1.0000 </r>
       <r>    7.0392    0.0000 </r>
       <r>   10.6343    0.0000 </r>
       <r>   12.4924    0.0000 </r>
       <r>   13.0169    0.0000 </r>
      </set>
      <set comment="kpoint 76">
       <r>   -3.3780    1.0000 </r>
       <r>   -0.7112    1.0000 </r>
       <r>    2.9496    1.0000 </r>
       <r>    2.9496    1.0000 </r>
       <r>    6.2382    0.0000 </r>
       <r>    6.8807    0.0000 </r>
       <r>   14.2600    0.0000 </r>
       <r>   14.2601    0.0000 </r>
      </set>
      <set comment="kpoint 77">
       <r>   -2.9641    1.0000 </r>
       <r>   -1.1988    1.0000 </r>
       <r>    2.7027    1.0000 </r>
       <r>    2.9061    1.0000 </r>
       <r>    6.3758    0.0000 </r>
       <r>    6.8537    0.0000 </r>
       <r>   14.5373    0.0000 </r>
       <r>   14.5659    0.0000 </r>
      </set>
      <set comment="kpoint 78">
       <r>   -2.5214    1.0000 </r>
       <r>   -1.6465    1.0000 </r>
       <r>    2.2483    1.0000 </r>
       <r>    2.9369    1.0000 </r>
       <r>    6.4992    0.0000 </r>
       <r>    7.4133    0.0000 </r>
       <r>   14.4075    0.0000 </r>
       <r>   14.5697    0.0000 </r>
      </set>
      <set comment="kpoint 79">
       <r>   -2.2906    1.0000 </r>
       <r>   -1.8333    1.0000 </r>
       <r>    1.7986    1.0000 </r>
       <r>    3.0406    1.0000 </r>
       <r>    6.6226    0.0000 </r>
       <r>    8.3512    0.0000 </r>
       <r>   13.9295    0.0000 </r>
       <r>   14.4378    0.0000 </r>
      </set>
      <set comment="kpoint 80">
       <r>   -2.5620    1.0000 </r>
       <r>   -1.6683    1.0000 </r>
       <r>    2.8422    1.0000 </r>
       <r>    2.8422    1.0000 </r>
       <r>    6.2936    0.0000 </r>
       <r>    6.5039    0.0000 </r>
       <r>   15.3033    0.0000 </r>
       <r>   15.3033    0.0000 </r>
      </set>
      <set comment="kpoint 81">
       <r>   -2.1377    1.0000 </r>
       <r>   -2.0917    1.0000 </r>
       <r>    2.6428    1.0000 </r>
       <r>    2.8526    1.0000 </r>
       <r>    6.4060    0.0000 </r>
       <r>    6.6648    0.0000 </r>
       <r>   15.2863    0.0000 </r>
       <r>   15.4038    0.0000 </r>
      </set>
      <set comment="kpoint 82">
       <r>   -5.8999    1.0000 </r>
       <r>    3.8820    1.0000 </r>
       <r>    4.6723    1.0000 </r>
       <r>    5.2508    1.0000 </r>
       <r>    8.0132    0.0000 </r>
       <r>    8.7926    0.0000 </r>
       <r>    9.0848    0.0000 </r>
       <r>   10.3442    0.0000 </r>
      </set>
      <set comment="kpoint 83">
       <r>   -5.6809    1.0000 </r>
       <r>    2.9832    1.0000 </r>
       <r>    4.2877    1.0000 </r>
       <r>    5.1106    1.0000 </r>
       <r>    8.1582    0.0000 </r>
       <r>    8.7843    0.0000 </r>
       <r>    9.4417    0.0000 </r>
       <r>   10.7855    0.0000 </r>
      </set>
      <set comment="kpoint 84">
       <r>   -5.3805    1.0000 </r>
       <r>    1.9816    1.0000 </r>
       <r>    4.0253    1.0000 </r>
       <r>    4.8973    1.0000 </r>
       <r>    8.1974    0.0000 </r>
       <r>    8.8444    0.0000 </r>
       <r>    9.6961    0.0000 </r>
       <r>   11.0065    0.0000 </r>
      </set>
      <set comment="kpoint 85">
       <r>   -5.0079    1.0000 </r>
       <r>    1.0009    1.0000 </r>
       <r>    3.8384    1.0000 </r>
       <r>    4.6710    1.0000 </r>
       <r>    8.0875    0.0000 </r>
       <r>    8.9330    0.0000 </r>
       <r>    9.7490    0.0000 </r>
       <r>   11.3963    0.0000 </r>
      </set>
      <set comment="kpoint 86">
       <r>   -4.5834    1.0000 </r>
       <r>    0.1021    1.0000 </r>
       <r>    3.7134    1.0000 </r>
       <r>    4.4700    1.0000 </r>
       <r>    7.9602    0.0000 </r>
       <r>    8.9251    0.0000 </r>
       <r>    9.6769    0.0000 </r>
       <r>   12.0597    0.0000 </r>
      </set>
      <set comment="kpoint 87">
       <r>   -4.1549    1.0000 </r>
       <r>   -0.6492    1.0000 </r>
       <r>    3.6406    1.0000 </r>
       <r>    4.3190    1.0000 </r>
       <r>    7.8640    0.0000 </r>
       <r>    8.8733    0.0000 </r>
       <r>    9.5790    0.0000 </r>
       <r>   12.8820    0.0000 </r>
      </set>
      <set comment="kpoint 88">
       <r>   -3.8434    1.0000 </r>
       <r>   -1.1239    1.0000 </r>
       <r>    3.6087    1.0000 </r>
       <r>    4.2372    1.0000 </r>
       <r>    7.8139    0.0000 </r>
       <r>    8.8349    0.0000 </r>
       <r>    9.5164    0.0000 </r>
       <r>   13.5692    0.0000 </r>
      </set>
      <set comment="kpoint 89">
       <r>   -5.6059    1.0000 </r>
       <r>    3.0288    1.0000 </r>
       <r>    4.1370    1.0000 </r>
       <r>    4.6614    1.0000 </r>
       <r>    7.6043    0.0000 </r>
       <r>    9.4388    0.0000 </r>
       <r>    9.9989    0.0000 </r>
       <r>   10.2472    0.0000 </r>
      </set>
      <set comment="kpoint 90">
       <r>   -5.3324    1.0000 </r>
       <r>    2.1990    1.0000 </r>
       <r>    3.7479    1.0000 </r>
       <r>    4.5018    1.0000 </r>
       <r>    7.7823    0.0000 </r>
       <r>    9.4062    0.0000 </r>
       <r>   10.1573    0.0000 </r>
       <r>   10.3527    0.0000 </r>
      </set>
      <set comment="kpoint 91">
       <r>   -4.9830    1.0000 </r>
       <r>    1.2880    1.0000 </r>
       <r>    3.4770    1.0000 </r>
       <r>    4.2894    1.0000 </r>
       <r>    7.9434    0.0000 </r>
       <r>    9.4221    0.0000 </r>
       <r>   10.1817    0.0000 </r>
       <r>   10.5258    0.0000 </r>
      </set>
      <set comment="kpoint 92">
       <r>   -4.5728    1.0000 </r>
       <r>    0.4031    1.0000 </r>
       <r>    3.2741    1.0000 </r>
       <r>    4.0978    1.0000 </r>
       <r>    7.9834    0.0000 </r>
       <r>    9.3431    0.0000 </r>
       <r>   10.4363    0.0000 </r>
       <r>   10.7284    0.0000 </r>
      </set>
      <set comment="kpoint 93">
       <r>   -4.1367    1.0000 </r>
       <r>   -0.3807    1.0000 </r>
       <r>    3.1140    1.0000 </r>
       <r>    3.9722    1.0000 </r>
       <r>    7.9786    0.0000 </r>
       <r>    9.1962    0.0000 </r>
       <r>   10.3720    0.0000 </r>
       <r>   11.5111    0.0000 </r>
      </set>
      <set comment="kpoint 94">
       <r>   -3.7645    1.0000 </r>
       <r>   -0.9555    1.0000 </r>
       <r>    2.9878    1.0000 </r>
       <r>    3.9340    1.0000 </r>
       <r>    7.9989    0.0000 </r>
       <r>    9.0665    0.0000 </r>
       <r>   10.2773    0.0000 </r>
       <r>   12.4908    0.0000 </r>
      </set>
      <set comment="kpoint 95">
       <r>   -3.6445    1.0000 </r>
       <r>   -1.1251    1.0000 </r>
       <r>    2.9002    1.0000 </r>
       <r>    3.9845    1.0000 </r>
       <r>    8.0676    0.0000 </r>
       <r>    8.9842    0.0000 </r>
       <r>   10.2147    0.0000 </r>
       <r>   13.5237    0.0000 </r>
      </set>
      <set comment="kpoint 96">
       <r>   -3.8763    1.0000 </r>
       <r>   -0.7886    1.0000 </r>
       <r>    2.8634    1.0000 </r>
       <r>    4.1131    1.0000 </r>
       <r>    8.1836    0.0000 </r>
       <r>    8.9591    0.0000 </r>
       <r>   10.1942    0.0000 </r>
       <r>   12.7871    0.0000 </r>
      </set>
      <set comment="kpoint 97">
       <r>   -4.2866    1.0000 </r>
       <r>   -0.1245    1.0000 </r>
       <r>    2.8916    1.0000 </r>
       <r>    4.3043    1.0000 </r>
       <r>    8.3329    0.0000 </r>
       <r>    8.9795    0.0000 </r>
       <r>   10.2009    0.0000 </r>
       <r>   11.8665    0.0000 </r>
      </set>
      <set comment="kpoint 98">
       <r>   -4.7197    1.0000 </r>
       <r>    0.6966    1.0000 </r>
       <r>    3.0018    1.0000 </r>
       <r>    4.5381    1.0000 </r>
       <r>    8.4894    0.0000 </r>
       <r>    8.9876    0.0000 </r>
       <r>   10.1866    0.0000 </r>
       <r>   11.1373    0.0000 </r>
      </set>
      <set comment="kpoint 99">
       <r>   -5.1112    1.0000 </r>
       <r>    1.5717    1.0000 </r>
       <r>    3.2247    1.0000 </r>
       <r>    4.7854    1.0000 </r>
       <r>    8.5773    0.0000 </r>
       <r>    8.9083    0.0000 </r>
       <r>   10.0720    0.0000 </r>
       <r>   10.7255    0.0000 </r>
      </set>
      <set comment="kpoint 100">
       <r>   -5.4355    1.0000 </r>
       <r>    2.3790    1.0000 </r>
       <r>    3.6320    1.0000 </r>
       <r>    4.9988    1.0000 </r>
       <r>    8.3957    0.0000 </r>
       <r>    8.8890    0.0000 </r>
       <r>    9.7611    0.0000 </r>
       <r>   10.6923    0.0000 </r>
      </set>
      <set comment="kpoint 101">
       <r>   -5.1979    1.0000 </r>
       <r>    2.1278    1.0000 </r>
       <r>    3.6500    1.0000 </r>
       <r>    4.0581    1.0000 </r>
       <r>    7.2115    0.0000 </r>
       <r>    9.1579    0.0000 </r>
       <r>   10.5742    0.0000 </r>
       <r>   11.0050    0.0000 </r>
      </set>
      <set comment="kpoint 102">
       <r>   -4.8733    1.0000 </r>
       <r>    1.3931    1.0000 </r>
       <r>    3.2580    1.0000 </r>
       <r>    3.8820    1.0000 </r>
       <r>    7.4184    0.0000 </r>
       <r>    9.0893    0.0000 </r>
       <r>   10.4856    0.0000 </r>
       <r>   11.3403    0.0000 </r>
      </set>
      <set comment="kpoint 103">
       <r>   -4.4815    1.0000 </r>
       <r>    0.6032    1.0000 </r>
       <r>    2.9326    1.0000 </r>
       <r>    3.7069    1.0000 </r>
       <r>    7.5838    0.0000 </r>
       <r>    9.4309    0.0000 </r>
       <r>   10.2991    0.0000 </r>
       <r>   11.4243    0.0000 </r>
      </set>
      <set comment="kpoint 104">
       <r>   -4.0477    1.0000 </r>
       <r>   -0.1532    1.0000 </r>
       <r>    2.6527    1.0000 </r>
       <r>    3.6033    1.0000 </r>
       <r>    7.6458    0.0000 </r>
       <r>   10.0646    0.0000 </r>
       <r>   10.1854    0.0000 </r>
       <r>   11.3587    0.0000 </r>
      </set>
      <set comment="kpoint 105">
       <r>   -3.6366    1.0000 </r>
       <r>   -0.7754    1.0000 </r>
       <r>    2.4194    1.0000 </r>
       <r>    3.5906    1.0000 </r>
       <r>    7.7025    0.0000 </r>
       <r>    9.8972    0.0000 </r>
       <r>   11.1216    0.0000 </r>
       <r>   11.2491    0.0000 </r>
      </set>
      <set comment="kpoint 106">
       <r>   -3.4100    1.0000 </r>
       <r>   -1.0843    1.0000 </r>
       <r>    2.2459    1.0000 </r>
       <r>    3.6654    1.0000 </r>
       <r>    7.8099    0.0000 </r>
       <r>    9.7443    0.0000 </r>
       <r>   11.1491    0.0000 </r>
       <r>   12.2148    0.0000 </r>
      </set>
      <set comment="kpoint 107">
       <r>   -3.5446    1.0000 </r>
       <r>   -0.8987    1.0000 </r>
       <r>    2.1482    1.0000 </r>
       <r>    3.8169    1.0000 </r>
       <r>    7.9821    0.0000 </r>
       <r>    9.6331    0.0000 </r>
       <r>   11.0722    0.0000 </r>
       <r>   12.7358    0.0000 </r>
      </set>
      <set comment="kpoint 108">
       <r>   -3.9246    1.0000 </r>
       <r>   -0.3442    1.0000 </r>
       <r>    2.1464    1.0000 </r>
       <r>    4.0312    1.0000 </r>
       <r>    8.2115    0.0000 </r>
       <r>    9.5484    0.0000 </r>
       <r>   10.9927    0.0000 </r>
       <r>   11.7789    0.0000 </r>
      </set>
      <set comment="kpoint 109">
       <r>   -4.3600    1.0000 </r>
       <r>    0.3555    1.0000 </r>
       <r>    2.2771    1.0000 </r>
       <r>    4.2885    1.0000 </r>
       <r>    8.4740    0.0000 </r>
       <r>    9.4138    0.0000 </r>
       <r>   10.8150    0.0000 </r>
       <r>   11.0699    0.0000 </r>
      </set>
      <set comment="kpoint 110">
       <r>   -4.7664    1.0000 </r>
       <r>    1.0356    1.0000 </r>
       <r>    2.6129    1.0000 </r>
       <r>    4.5572    1.0000 </r>
       <r>    8.7154    0.0000 </r>
       <r>    9.0870    0.0000 </r>
       <r>   10.5826    0.0000 </r>
       <r>   10.6292    0.0000 </r>
      </set>
      <set comment="kpoint 111">
       <r>   -4.6800    1.0000 </r>
       <r>    1.1877    1.0000 </r>
       <r>    3.2462    1.0000 </r>
       <r>    3.5393    1.0000 </r>
       <r>    6.8898    0.0000 </r>
       <r>    8.3647    0.0000 </r>
       <r>   11.4785    0.0000 </r>
       <r>   12.0625    0.0000 </r>
      </set>
      <set comment="kpoint 112">
       <r>   -4.3093    1.0000 </r>
       <r>    0.5507    1.0000 </r>
       <r>    2.8421    1.0000 </r>
       <r>    3.3723    1.0000 </r>
       <r>    7.1227    0.0000 </r>
       <r>    8.4026    0.0000 </r>
       <r>   11.3601    0.0000 </r>
       <r>   12.3870    0.0000 </r>
      </set>
      <set comment="kpoint 113">
       <r>   -3.8850    1.0000 </r>
       <r>   -0.1039    1.0000 </r>
       <r>    2.4285    1.0000 </r>
       <r>    3.2753    1.0000 </r>
       <r>    7.2685    0.0000 </r>
       <r>    8.9143    0.0000 </r>
       <r>   11.1644    0.0000 </r>
       <r>   12.4272    0.0000 </r>
      </set>
      <set comment="kpoint 114">
       <r>   -3.4531    1.0000 </r>
       <r>   -0.6996    1.0000 </r>
       <r>    2.0633    1.0000 </r>
       <r>    3.2703    1.0000 </r>
       <r>    7.3481    0.0000 </r>
       <r>    9.7667    0.0000 </r>
       <r>   10.9674    0.0000 </r>
       <r>   12.3411    0.0000 </r>
      </set>
      <set comment="kpoint 115">
       <r>   -3.1416    1.0000 </r>
       <r>   -1.0884    1.0000 </r>
       <r>    1.7852    1.0000 </r>
       <r>    3.3514    1.0000 </r>
       <r>    7.4629    0.0000 </r>
       <r>   10.6001    0.0000 </r>
       <r>   10.9964    0.0000 </r>
       <r>   12.2246    0.0000 </r>
      </set>
      <set comment="kpoint 116">
       <r>   -3.1733    1.0000 </r>
       <r>   -1.0433    1.0000 </r>
       <r>    1.6207    1.0000 </r>
       <r>    3.5094    1.0000 </r>
       <r>    7.6450    0.0000 </r>
       <r>   10.5549    0.0000 </r>
       <r>   11.9596    0.0000 </r>
       <r>   12.1549    0.0000 </r>
      </set>
      <set comment="kpoint 117">
       <r>   -3.5143    1.0000 </r>
       <r>   -0.6181    1.0000 </r>
       <r>    1.6046    1.0000 </r>
       <r>    3.7323    1.0000 </r>
       <r>    7.8938    0.0000 </r>
       <r>   10.3943    0.0000 </r>
       <r>   11.6824    0.0000 </r>
       <r>   12.0032    0.0000 </r>
      </set>
      <set comment="kpoint 118">
       <r>   -3.9454    1.0000 </r>
       <r>   -0.0913    1.0000 </r>
       <r>    1.8003    1.0000 </r>
       <r>    4.0023    1.0000 </r>
       <r>    8.1896    0.0000 </r>
       <r>   10.0384    0.0000 </r>
       <r>   11.0965    0.0000 </r>
       <r>   11.5900    0.0000 </r>
      </set>
      <set comment="kpoint 119">
       <r>   -4.0579    1.0000 </r>
       <r>    0.2261    1.0000 </r>
       <r>    2.9419    1.0000 </r>
       <r>    3.1363    1.0000 </r>
       <r>    6.6706    0.0000 </r>
       <r>    7.6814    0.0000 </r>
       <r>   12.4507    0.0000 </r>
       <r>   13.1532    0.0000 </r>
      </set>
      <set comment="kpoint 120">
       <r>   -3.6483    1.0000 </r>
       <r>   -0.3257    1.0000 </r>
       <r>    2.5225    1.0000 </r>
       <r>    3.0142    1.0000 </r>
       <r>    6.9172    0.0000 </r>
       <r>    7.8689    0.0000 </r>
       <r>   12.3010    0.0000 </r>
       <r>   13.4712    0.0000 </r>
      </set>
      <set comment="kpoint 121">
       <r>   -3.2089    1.0000 </r>
       <r>   -0.8518    1.0000 </r>
       <r>    2.0476    1.0000 </r>
       <r>    3.0038    1.0000 </r>
       <r>    7.0403    0.0000 </r>
       <r>    8.5685    0.0000 </r>
       <r>   12.0948    0.0000 </r>
       <r>   13.4801    0.0000 </r>
      </set>
      <set comment="kpoint 122">
       <r>   -2.8372    1.0000 </r>
       <r>   -1.2549    1.0000 </r>
       <r>    1.6487    1.0000 </r>
       <r>    3.0808    1.0000 </r>
       <r>    7.1554    0.0000 </r>
       <r>    9.5486    0.0000 </r>
       <r>   11.8882    0.0000 </r>
       <r>   13.3451    0.0000 </r>
      </set>
      <set comment="kpoint 123">
       <r>   -2.7837    1.0000 </r>
       <r>   -1.2995    1.0000 </r>
       <r>    1.3972    1.0000 </r>
       <r>    3.2355    1.0000 </r>
       <r>    7.3344    0.0000 </r>
       <r>   10.6515    0.0000 </r>
       <r>   11.7080    0.0000 </r>
       <r>   12.8017    0.0000 </r>
      </set>
      <set comment="kpoint 124">
       <r>   -3.0947    1.0000 </r>
       <r>   -0.9807    1.0000 </r>
       <r>    1.3585    1.0000 </r>
       <r>    3.4579    1.0000 </r>
       <r>    7.5857    0.0000 </r>
       <r>   11.1596    0.0000 </r>
       <r>   11.9828    0.0000 </r>
       <r>   12.0223    0.0000 </r>
      </set>
      <set comment="kpoint 125">
       <r>   -3.3394    1.0000 </r>
       <r>   -0.7317    1.0000 </r>
       <r>    2.7459    1.0000 </r>
       <r>    2.8565    1.0000 </r>
       <r>    6.5739    0.0000 </r>
       <r>    7.1604    0.0000 </r>
       <r>   13.4631    0.0000 </r>
       <r>   14.2569    0.0000 </r>
      </set>
      <set comment="kpoint 126">
       <r>   -2.9022    1.0000 </r>
       <r>   -1.2115    1.0000 </r>
       <r>    2.3217    1.0000 </r>
       <r>    2.8065    1.0000 </r>
       <r>    6.8055    0.0000 </r>
       <r>    7.5305    0.0000 </r>
       <r>   13.2931    0.0000 </r>
       <r>   14.5318    0.0000 </r>
      </set>
      <set comment="kpoint 127">
       <r>   -2.4935    1.0000 </r>
       <r>   -1.6068    1.0000 </r>
       <r>    1.8485    1.0000 </r>
       <r>    2.8730    1.0000 </r>
       <r>    6.9211    0.0000 </r>
       <r>    8.3978    0.0000 </r>
       <r>   13.0732    0.0000 </r>
       <r>   14.0963    0.0000 </r>
      </set>
      <set comment="kpoint 128">
       <r>   -2.4454    1.0000 </r>
       <r>   -1.6217    1.0000 </r>
       <r>    1.5015    1.0000 </r>
       <r>    3.0189    1.0000 </r>
       <r>    7.0893    0.0000 </r>
       <r>    9.4765    0.0000 </r>
       <r>   12.6900    0.0000 </r>
       <r>   13.1323    0.0000 </r>
      </set>
      <set comment="kpoint 129">
       <r>   -2.5353    1.0000 </r>
       <r>   -1.6598    1.0000 </r>
       <r>    2.6638    1.0000 </r>
       <r>    2.6998    1.0000 </r>
       <r>    6.6154    0.0000 </r>
       <r>    6.8074    0.0000 </r>
       <r>   14.4993    0.0000 </r>
       <r>   15.1784    0.0000 </r>
      </set>
      <set comment="kpoint 130">
       <r>   -2.1539    1.0000 </r>
       <r>   -2.0085    1.0000 </r>
       <r>    2.2535    1.0000 </r>
       <r>    2.7387    1.0000 </r>
       <r>    6.7727    0.0000 </r>
[...]
     <r>    10.2871     0.3879     0.3879     0.3879     0.0000    -0.0000     0.0000 </r>
     <r>    10.2971     0.4016     0.4016     0.4016    -0.0000     0.0000     0.0000 </r>
     <r>    10.3072     0.3318     0.3318     0.3318     0.0000    -0.0000    -0.0000 </r>
     <r>    10.3172     0.0875     0.0875     0.0875     0.0000    -0.0000    -0.0000 </r>
     <r>    10.3272     0.1522     0.1522     0.1522     0.0000    -0.0000    -0.0000 </r>
     <r>    10.3372     0.4261     0.4261     0.4261     0.0000     0.0000     0.0000 </r>
     <r>    10.3472     0.4005     0.4005     0.4005     0.0000    -0.0000     0.0000 </r>
     <r>    10.3572     0.3063     0.3063     0.3063     0.0000     0.0000     0.0000 </r>
     <r>    10.3672     0.3175     0.3175     0.3175     0.0000    -0.0000     0.0000 </r>
     <r>    10.3772     0.4484     0.4484     0.4484     0.0000     0.0000     0.0000 </r>
     <r>    10.3872     0.3204     0.3204     0.3204     0.0000     0.0000     0.0000 </r>
     <r>    10.3972     0.4168     0.4168     0.4168     0.0000     0.0000    -0.0000 </r>
     <r>    10.4073     0.2253     0.2253     0.2253    -0.0000    -0.0000    -0.0000 </r>
     <r>    10.4173     0.0498     0.0498     0.0498     0.0000     0.0000    -0.0000 </r>
     <r>    10.4273     0.2451     0.2451     0.2451    -0.0000    -0.0000     0.0000 </r>
     <r>    10.4373     0.4515     0.4515     0.4515    -0.0000    -0.0000     0.0000 </r>
     <r>    10.4473     0.2475     0.2475     0.2475     0.0000    -0.0000     0.0000 </r>
     <r>    10.4573     0.2896     0.2896     0.2896     0.0000     0.0000     0.0000 </r>
     <r>    10.4673     0.4394     0.4394     0.4394     0.0000    -0.0000     0.0000 </r>
     <r>    10.4773     0.5037     0.5037     0.5037     0.0000    -0.0000     0.0000 </r>
     <r>    10.4873     0.5808     0.5808     0.5808     0.0000     0.0000     0.0000 </r>
     <r>    10.4973     0.2979     0.2979     0.2979     0.0000     0.0000    -0.0000 </r>
     <r>    10.5074     0.1532     0.1532     0.1532     0.0000    -0.0000     0.0000 </r>
     <r>    10.5174     0.1431     0.1431     0.1431    -0.0000    -0.0000     0.0000 </r>
     <r>    10.5274     0.1768     0.1768     0.1768    -0.0000    -0.0000     0.0000 </r>
     <r>    10.5374     0.1566     0.1566     0.1566     0.0000    -0.0000     0.0000 </r>
     <r>    10.5474     0.1519     0.1519     0.1519     0.0000    -0.0000    -0.0000 </r>
     <r>    10.5574     0.3931     0.3931     0.3931     0.0000    -0.0000     0.0000 </r>
     <r>    10.5674     0.3425     0.3425     0.3425     0.0000    -0.0000     0.0000 </r>
     <r>    10.5774     0.3097     0.3097     0.3097     0.0000     0.0000     0.0000 </r>
     <r>    10.5874     0.2392     0.2392     0.2392     0.0000    -0.0000     0.0000 </r>
     <r>    10.5974     0.1263     0.1263     0.1263     0.0000     0.0000     0.0000 </r>
     <r>    10.6075     0.1656     0.1656     0.1656     0.0000    -0.0000     0.0000 </r>
     <r>    10.6175     0.2861     0.2861     0.2861    -0.0000     0.0000    -0.0000 </r>
     <r>    10.6275     0.2921     0.2921     0.2921    -0.0000    -0.0000     0.0000 </r>
     <r>    10.6375     0.2753     0.2753     0.2753    -0.0000     0.0000    -0.0000 </r>
     <r>    10.6475     0.4199     0.4199     0.4199    -0.0000     0.0000    -0.0000 </r>
     <r>    10.6575     0.7234     0.7234     0.7234     0.0000     0.0000     0.0000 </r>
     <r>    10.6675     0.2952     0.2952     0.2952    -0.0000    -0.0000     0.0000 </r>
     <r>    10.6775     0.0356     0.0356     0.0356     0.0000     0.0000    -0.0000 </r>
     <r>    10.6875     0.1842     0.1842     0.1842     0.0000     0.0000    -0.0000 </r>
     <r>    10.6975     0.5635     0.5635     0.5635     0.0000    -0.0000     0.0000 </r>
     <r>    10.7076     0.5565     0.5565     0.5565    -0.0000     0.0000    -0.0000 </r>
     <r>    10.7176     0.2662     0.2662     0.2662     0.0000    -0.0000     0.0000 </r>
    </set>
   </array>
  </conductivity>
  <dos>
   <i name="efermi">      5.71756438 </i>
   <total>
    <array>
     <dimension dim="1">gridpoints</dimension>
     <dimension dim="2">spin</dimension>
     <field>energy</field>
     <field>total</field>
     <field>integrated</field>
     <set>
      <set comment="spin 1">
       <r>    -7.2762     0.0000     0.0000 </r>
       <r>    -7.1970     0.0000     0.0000 </r>
       <r>    -7.1178     0.0000     0.0000 </r>
       <r>    -7.0386     0.0000     0.0000 </r>
       <r>    -6.9594     0.0000     0.0000 </r>
       <r>    -6.8802     0.0000     0.0000 </r>
       <r>    -6.8010     0.0000     0.0000 </r>
       <r>    -6.7218     0.0000     0.0000 </r>
       <r>    -6.6426     0.0000     0.0000 </r>
       <r>    -6.5634     0.0000     0.0000 </r>
       <r>    -6.4842     0.0000     0.0000 </r>
       <r>    -6.4050     0.0000     0.0000 </r>
       <r>    -6.3258     0.0000     0.0000 </r>
       <r>    -6.2466     0.0000     0.0000 </r>
       <r>    -6.1674     0.0057     0.0004 </r>
       <r>    -6.0882     0.0753     0.0064 </r>
       <r>    -6.0090     0.2184     0.0237 </r>
       <r>    -5.9298     0.0332     0.0266 </r>
       <r>    -5.8506     0.2574     0.0470 </r>
       <r>    -5.7714     0.2747     0.0688 </r>
       <r>    -5.6922     0.0754     0.0748 </r>
       <r>    -5.6130     0.4068     0.1070 </r>
       <r>    -5.5338     0.3488     0.1346 </r>
       <r>    -5.4546     0.0909     0.1419 </r>
       <r>    -5.3754     0.5086     0.1822 </r>
       <r>    -5.2962     0.3701     0.2162 </r>
       <r>    -5.2170     0.1917     0.2313 </r>
       <r>    -5.1378     0.3480     0.2607 </r>
       <r>    -5.0586     0.4100     0.2951 </r>
       <r>    -4.9794     0.6011     0.3427 </r>
       <r>    -4.9002     0.1875     0.3635 </r>
       <r>    -4.8210     0.3604     0.3921 </r>
       <r>    -4.7418     0.4939     0.4321 </r>
       <r>    -4.6626     0.7162     0.4888 </r>
       <r>    -4.5834     0.2629     0.5171 </r>
       <r>    -4.5042     0.5922     0.5640 </r>
       <r>    -4.4250     0.2470     0.5842 </r>
       <r>    -4.3458     0.8653     0.6527 </r>
       <r>    -4.2666     0.6521     0.7091 </r>
       <r>    -4.1874     0.4844     0.7486 </r>
       <r>    -4.1082     0.7918     0.8113 </r>
       <r>    -4.0290     0.4624     0.8488 </r>
       <r>    -3.9498     0.5641     0.8936 </r>
       <r>    -3.8706     1.3775     1.0029 </r>
       <r>    -3.7914     0.7514     1.0679 </r>
       <r>    -3.7122     0.6187     1.1169 </r>
       <r>    -3.6330     1.0048     1.1965 </r>
       <r>    -3.5538     0.4619     1.2403 </r>
       <r>    -3.4746     1.0742     1.3254 </r>
       <r>    -3.3954     0.9790     1.4034 </r>
       <r>    -3.3162     0.1762     1.4180 </r>
       <r>    -3.2370     0.7296     1.4758 </r>
       <r>    -3.1578     0.9649     1.5522 </r>
       <r>    -3.0786     0.5288     1.5955 </r>
       <r>    -2.9994     0.5728     1.6409 </r>
       <r>    -2.9202     0.4896     1.6797 </r>
       <r>    -2.8410     0.7511     1.7396 </r>
       <r>    -2.7618     0.6916     1.7992 </r>
       <r>    -2.6826     0.0375     1.8022 </r>
       <r>    -2.6034     0.4051     1.8342 </r>
       <r>    -2.5242     0.5244     1.8758 </r>
       <r>    -2.4450     0.7605     1.9366 </r>
       <r>    -2.3658     0.0823     1.9432 </r>
       <r>    -2.2866     0.1438     1.9546 </r>
       <r>    -2.2074     0.1250     1.9659 </r>
       <r>    -2.1282     0.4246     1.9996 </r>
       <r>    -2.0490     0.0617     2.0049 </r>
       <r>    -1.9698     0.1234     2.0147 </r>
       <r>    -1.8906     0.0975     2.0224 </r>
       <r>    -1.8114     0.0616     2.0293 </r>
       <r>    -1.7322     0.1234     2.0391 </r>
       <r>    -1.6530     0.3036     2.0631 </r>
       <r>    -1.5738     0.6930     2.1197 </r>
       <r>    -1.4946     0.2926     2.1429 </r>
       <r>    -1.4154     0.3241     2.1685 </r>
       <r>    -1.3362     0.2027     2.1846 </r>
       <r>    -1.2570     0.6324     2.2347 </r>
       <r>    -1.1778     1.3595     2.3423 </r>
       <r>    -1.0986     1.0302     2.4253 </r>
       <r>    -1.0194     1.8586     2.5725 </r>
       <r>    -0.9402     1.2825     2.6788 </r>
       <r>    -0.8610     0.4510     2.7257 </r>
       <r>    -0.7818     0.7425     2.7845 </r>
       <r>    -0.7026     1.1715     2.8805 </r>
       <r>    -0.6234     0.5262     2.9225 </r>
       <r>    -0.5442     0.8236     2.9877 </r>
       <r>    -0.4650     0.3115     3.0131 </r>
       <r>    -0.3858     0.7328     3.0711 </r>
       <r>    -0.3066     0.6809     3.1251 </r>
       <r>    -0.2274     0.2314     3.1435 </r>
       <r>    -0.1482     0.7642     3.2053 </r>
       <r>    -0.0690     0.6166     3.2620 </r>
       <r>     0.0102     0.0001     3.2620 </r>
       <r>     0.0894     0.1733     3.2757 </r>
       <r>     0.1686     0.8545     3.3434 </r>
       <r>     0.2478     0.3706     3.3727 </r>
       <r>     0.3270     0.1535     3.3849 </r>
       <r>     0.4062     0.7513     3.4444 </r>
       <r>     0.4854     0.0617     3.4582 </r>
       <r>     0.5646     0.2407     3.4772 </r>
       <r>     0.6438     0.2467     3.4973 </r>
       <r>     0.7230     0.4934     3.5363 </r>
       <r>     0.8022     0.1234     3.5461 </r>
       <r>     0.8814     0.1659     3.5592 </r>
       <r>     0.9606     0.4046     3.5913 </r>
       <r>     1.0398     0.5004     3.6346 </r>
       <r>     1.1190     0.0000     3.6373 </r>
       <r>     1.1982     0.1150     3.6464 </r>
       <r>     1.2774     0.0167     3.6484 </r>
       <r>     1.3566     0.6182     3.6973 </r>
       <r>     1.4358     0.8132     3.7617 </r>
       <r>     1.5150     0.4809     3.7999 </r>
       <r>     1.5942     1.1638     3.8924 </r>
       <r>     1.6734     1.6412     4.0225 </r>
       <r>     1.7526     0.8314     4.0884 </r>
       <r>     1.8318     0.8899     4.1645 </r>
       <r>     1.9110     1.3316     4.2744 </r>
       <r>     1.9902     1.2664     4.3784 </r>
       <r>     2.0694     0.5076     4.4227 </r>
       <r>     2.1486     1.1566     4.5181 </r>
       <r>     2.2278     0.6572     4.5779 </r>
       <r>     2.3070     1.2486     4.6768 </r>
       <r>     2.3862     0.9519     4.7522 </r>
       <r>     2.4654     1.8790     4.9030 </r>
       <r>     2.5446     0.7432     4.9619 </r>
       <r>     2.6238     0.6130     5.0188 </r>
       <r>     2.7030     1.4150     5.1315 </r>
       <r>     2.7822     1.0884     5.2244 </r>
       <r>     2.8614     1.4002     5.3391 </r>
       <r>     2.9406     2.2829     5.5251 </r>
       <r>     3.0198     1.3824     5.6452 </r>
       <r>     3.0990     1.1137     5.7424 </r>
       <r>     3.1782     0.9663     5.8214 </r>
       <r>     3.2574     1.6868     5.9592 </r>
       <r>     3.3366     1.7060     6.1045 </r>
       <r>     3.4158     1.1089     6.1940 </r>
       <r>     3.4950     1.0834     6.2804 </r>
       <r>     3.5742     0.9200     6.3539 </r>
       <r>     3.6534     2.1432     6.5237 </r>
       <r>     3.7326     1.4447     6.6437 </r>
       <r>     3.8118     1.0287     6.7290 </r>
       <r>     3.8910     1.2927     6.8317 </r>
       <r>     3.9702     0.8927     6.9082 </r>
       <r>     4.0494     1.2602     7.0081 </r>
       <r>     4.1286     1.3886     7.1182 </r>
       <r>     4.2078     1.1003     7.2100 </r>
       <r>     4.2870     0.9322     7.2845 </r>
       <r>     4.3662     1.6315     7.4137 </r>
       <r>     4.4454     0.4727     7.4541 </r>
       <r>     4.5246     1.4240     7.5669 </r>
       <r>     4.6038     0.6515     7.6216 </r>
       <r>     4.6830     0.8482     7.6906 </r>
       <r>     4.7622     0.6317     7.7423 </r>
       <r>     4.8414     0.4928     7.7814 </r>
       <r>     4.9206     0.4499     7.8170 </r>
       <r>     4.9998     0.3972     7.8511 </r>
       <r>     5.0790     0.1233     7.8661 </r>
       <r>     5.1582     0.5065     7.9062 </r>
       <r>     5.2374     0.3097     7.9317 </r>
       <r>     5.3166     0.3188     7.9569 </r>
       <r>     5.3958     0.1729     7.9750 </r>
       <r>     5.4750     0.1560     7.9874 </r>
       <r>     5.5542     0.0510     7.9914 </r>
       <r>     5.6334     0.0742     7.9998 </r>
       <r>     5.7126     0.0000     8.0000 </r>
       <r>     5.7918     0.0000     8.0000 </r>
       <r>     5.8710     0.0000     8.0000 </r>
       <r>     5.9502     0.0000     8.0000 </r>
       <r>     6.0294     0.0000     8.0000 </r>
       <r>     6.1086     0.0000     8.0000 </r>
       <r>     6.1878     0.0000     8.0000 </r>
       <r>     6.2670     0.0308     8.0024 </r>
       <r>     6.3462     0.0616     8.0073 </r>
       <r>     6.4254     0.2829     8.0297 </r>
       <r>     6.5046     0.1129     8.0407 </r>
       <r>     6.5838     0.2257     8.0607 </r>
       <r>     6.6630     0.4068     8.0937 </r>
       <r>     6.7422     0.2661     8.1148 </r>
       <r>     6.8214     0.6454     8.1659 </r>
       <r>     6.9006     0.6388     8.2170 </r>
       <r>     6.9798     0.6121     8.2661 </r>
       <r>     7.0590     0.3949     8.2975 </r>
       <r>     7.1382     0.5330     8.3426 </r>
       <r>     7.2174     0.6400     8.3936 </r>
       <r>     7.2966     0.6889     8.4501 </r>
       <r>     7.3758     0.7268     8.5080 </r>
       <r>     7.4550     1.4439     8.6224 </r>
       <r>     7.5342     0.7288     8.6815 </r>
       <r>     7.6134     1.0405     8.7724 </r>
       <r>     7.6926     1.7675     8.9146 </r>
       <r>     7.7718     0.4252     8.9489 </r>
       <r>     7.8510     1.9814     9.1058 </r>
       <r>     7.9302     1.7045     9.2408 </r>
       <r>     8.0094     1.8866     9.4006 </r>
       <r>     8.0886     1.5576     9.5253 </r>
       <r>     8.1678     0.7928     9.5995 </r>
       <r>     8.2470     1.1493     9.6923 </r>
       <r>     8.3262     1.1197     9.7810 </r>
       <r>     8.4054     1.1779     9.8744 </r>
       <r>     8.4846     1.2421     9.9838 </r>
       <r>     8.5638     1.5691    10.1127 </r>
       <r>     8.6430     1.0317    10.2045 </r>
       <r>     8.7222     0.6555    10.2565 </r>
       <r>     8.8014     1.3152    10.3623 </r>
       <r>     8.8806     1.3589    10.4741 </r>
       <r>     8.9598     2.6846    10.6902 </r>
       <r>     9.0390     1.7062    10.8278 </r>
       <r>     9.1182     2.0050    10.9908 </r>
       <r>     9.1974     2.1169    11.1638 </r>
       <r>     9.2766     0.7111    11.2326 </r>
       <r>     9.3558     1.5424    11.3551 </r>
       <r>     9.4350     2.1280    11.5247 </r>
       <r>     9.5142     1.3766    11.6422 </r>
       <r>     9.5934     1.4852    11.7598 </r>
       <r>     9.6726     1.1224    11.8493 </r>
       <r>     9.7518     1.6217    11.9783 </r>
       <r>     9.8310     1.2729    12.0887 </r>
       <r>     9.9102     1.1270    12.1829 </r>
       <r>     9.9894     0.7234    12.2421 </r>
       <r>    10.0686     1.0159    12.3225 </r>
       <r>    10.1478     1.4191    12.4405 </r>
       <r>    10.2270     2.0633    12.6040 </r>
       <r>    10.3062     0.9472    12.6800 </r>
       <r>    10.3854     1.4259    12.7960 </r>
       <r>    10.4646     1.1944    12.8914 </r>
       <r>    10.5438     1.1782    12.9911 </r>
       <r>    10.6230     1.0872    13.0781 </r>
       <r>    10.7022     1.1208    13.1697 </r>
       <r>    10.7814     1.3022    13.2750 </r>
       <r>    10.8606     0.7388    13.3377 </r>
       <r>    10.9398     0.5291    13.3796 </r>
       <r>    11.0190     1.6171    13.5077 </r>
       <r>    11.0982     1.3903    13.6188 </r>
       <r>    11.1774     1.7398    13.7621 </r>
       <r>    11.2566     0.9724    13.8409 </r>
       <r>    11.3358     1.4965    13.9622 </r>
       <r>    11.4150     1.4550    14.0866 </r>
       <r>    11.4942     0.8362    14.1529 </r>
       <r>    11.5734     0.6470    14.2043 </r>
       <r>    11.6526     0.7902    14.2669 </r>
       <r>    11.7318     0.7659    14.3299 </r>
       <r>    11.8110     0.4943    14.3766 </r>
       <r>    11.8902     0.6435    14.4276 </r>
       <r>    11.9694     0.4765    14.4729 </r>
       <r>    12.0486     0.7339    14.5327 </r>
       <r>    12.1278     1.2969    14.6370 </r>
       <r>    12.2070     0.9382    14.7226 </r>
       <r>    12.2862     1.6322    14.8518 </r>
       <r>    12.3654     1.4667    14.9751 </r>
       <r>    12.4446     1.3766    15.0947 </r>
       <r>    12.5238     0.6219    15.1442 </r>
       <r>    12.6030     0.3486    15.1718 </r>
       <r>    12.6822     0.3858    15.2066 </r>
       <r>    12.7614     0.5227    15.2481 </r>
       <r>    12.8406     0.5707    15.2933 </r>
       <r>    12.9198     0.4897    15.3321 </r>
       <r>    12.9990     0.0914    15.3396 </r>
       <r>    13.0782     0.7803    15.4041 </r>
       <r>    13.1574     0.4611    15.4454 </r>
       <r>    13.2366     0.2301    15.4664 </r>
       <r>    13.3158     0.5694    15.5115 </r>
       <r>    13.3950     0.6220    15.5608 </r>
       <r>    13.4742     1.4096    15.6753 </r>
       <r>    13.5534     1.0055    15.7658 </r>
       <r>    13.6326     0.2436    15.7851 </r>
       <r>    13.7118     0.1174    15.7944 </r>
       <r>    13.7910     0.1234    15.8046 </r>
       <r>    13.8702     0.0006    15.8046 </r>
       <r>    13.9494     0.3077    15.8290 </r>
       <r>    14.0286     0.0000    15.8290 </r>
       <r>    14.1078     0.3374    15.8557 </r>
       <r>    14.1870     0.0000    15.8583 </r>
       <r>    14.2662     0.4083    15.8907 </r>
       <r>    14.3454     0.0000    15.8925 </r>
       <r>    14.4246     0.2476    15.9121 </r>
       <r>    14.5038     0.1508    15.9242 </r>
       <r>    14.5830     0.6121    15.9752 </r>
       <r>    14.6622     0.0000    15.9756 </r>
       <r>    14.7414     0.0000    15.9756 </r>
       <r>    14.8206     0.0000    15.9756 </r>
       <r>    14.8998     0.0000    15.9756 </r>
       <r>    14.9790     0.0000    15.9756 </r>
       <r>    15.0582     0.0000    15.9756 </r>
       <r>    15.1374     0.0000    15.9756 </r>
       <r>    15.2166     0.1234    15.9853 </r>
       <r>    15.2958     0.0652    15.9905 </r>
       <r>    15.3750     0.0526    15.9951 </r>
       <r>    15.4542     0.0617    16.0000 </r>
       <r>    15.5334     0.0000    16.0000 </r>
       <r>    15.6126     0.0000    16.0000 </r>
       <r>    15.6918     0.0000    16.0000 </r>
       <r>    15.7710     0.0000    16.0000 </r>
       <r>    15.8502     0.0000    16.0000 </r>
       <r>    15.9294     0.0000    16.0000 </r>
       <r>    16.0086     0.0000    16.0000 </r>
       <r>    16.0878     0.0000    16.0000 </r>
       <r>    16.1670     0.0000    16.0000 </r>
       <r>    16.2462     0.0000    16.0000 </r>
       <r>    16.3254     0.0000    16.0000 </r>
       <r>    16.4046     0.0000    16.0000 </r>
       <r>    16.4838     0.0000    16.0000 </r>
      </set>
     </set>
    </array>
   </total>
  </dos>
 </calculation>
 <structure name="finalpos" >
  <crystal>
   <varray name="basis" >
    <v>       0.00000000       2.73355606       2.73355606 </v>
    <v>       2.73355606       0.00000000       2.73355606 </v>
    <v>       2.73355606       2.73355606       0.00000000 </v>
   </varray>
   <i name="volume">     40.85205889 </i>
   <varray name="rec_basis" >
    <v>      -0.18291192       0.18291192       0.18291192 </v>
    <v>       0.18291192      -0.18291192       0.18291192 </v>
    <v>       0.18291192       0.18291192      -0.18291192 </v>
   </varray>
  </crystal>
  <varray name="positions" >
   <v>       0.00000000       0.00000000       0.00000000 </v>
   <v>       0.25000000       0.25000000       0.25000000 </v>
  </varray>
 </structure>
</modeling>
