
     Program PWSCF v.7.0 starts on  5Jan2025 at 10: 0: 0

     Reading input from pw.in

     Current dimensions of program PWSCF are:
     Max number of different atomic species (ntypx) = 10
     Max number of k-points (npk) =  40000

     bravais-lattice index     =            2
     lattice parameter (alat)  =      10.2600  a.u.
     number of atoms/cell      =            2
     number of atomic types    =            1

     End of band structure calculation

          k = 0.0000 0.0000 0.0000 (   283 PWs)   bands (ev):

    -5.8094   6.2539   6.2539   6.2539

          k = 0.2500 0.0000 0.0000 (   290 PWs)   bands (ev):

    -5.1234   4.5678   5.1234   5.6789

          k = 0.5000 0.0000 0.0000 (   302 PWs)   bands (ev):

    -3.3904  -0.6955   4.9645   4.9645

          k = 0.5000 0.2500 0.0000 (   311 PWs)   bands (ev):

    -2.5678   0.1234   3.4567   4.5678

     highest occupied level (ev):     6.2539

     Writing all to output data dir ./tmp/si.save/

     init_run     :      0.05s CPU      0.06s WALL (       1 calls)

     PWSCF        :      0.35s CPU      0.40s WALL

